# vtk DataFile Version 3.0
#This file was generated by the deal.II library on 2024/9/17 at 11:44:44
ASCII
DATASET UNSTRUCTURED_GRID

POINTS 5760 double
0.11 0.11 0
0.09625 0.10875 0
0.0825 0.1075 0
0.10875 0.09625 0
0.0951562 0.0951563 0
0.0815625 0.0940625 0
0.1075 0.0825 0
0.0940625 0.0815625 0
0.080625 0.080625 0
0.0825 0.1075 0
0.06875 0.10625 0
0.055 0.105 0
0.0815625 0.0940625 0
0.0679688 0.0929688 0
0.054375 0.091875 0
0.080625 0.080625 0
0.0671875 0.0796875 0
0.05375 0.07875 0
0.1075 0.0825 0
0.0940625 0.0815625 0
0.080625 0.080625 0
0.10625 0.06875 0
0.0929688 0.0679688 0
0.0796875 0.0671875 0
0.105 0.055 0
0.091875 0.054375 0
0.07875 0.05375 0
0.080625 0.080625 0
0.0671875 0.0796875 0
0.05375 0.07875 0
0.0796875 0.0671875 0
0.0664063 0.0664062 0
0.053125 0.065625 0
0.07875 0.05375 0
0.065625 0.053125 0
0.0525 0.0525 0
0.055 0.105 0
0.04125 0.10375 0
0.0275 0.1025 0
0.054375 0.091875 0
0.0407813 0.0907813 0
0.0271875 0.0896875 0
0.05375 0.07875 0
0.0403125 0.0778125 0
0.026875 0.076875 0
0.0275 0.1025 0
0.01375 0.10125 0
0 0.1 0
0.0271875 0.0896875 0
0.0135938 0.0885938 0
0 0.0875 0
0.026875 0.076875 0
0.0134375 0.0759375 0
0 0.075 0
0.05375 0.07875 0
0.0403125 0.0778125 0
0.026875 0.076875 0
0.053125 0.065625 0
0.0398438 0.0648438 0
0.0265625 0.0640625 0
0.0525 0.0525 0
0.039375 0.051875 0
0.02625 0.05125 0
0.026875 0.076875 0
0.0134375 0.0759375 0
0 0.075 0
0.0265625 0.0640625 0
0.0132813 0.0632813 0
0 0.0625 0
0.02625 0.05125 0
0.013125 0.050625 0
0 0.05 0
0.105 0.055 0
0.091875 0.054375 0
0.07875 0.05375 0
0.10375 0.04125 0
0.0907813 0.0407813 0
0.0778125 0.0403125 0
0.1025 0.0275 0
0.0896875 0.0271875 0
0.076875 0.026875 0
0.07875 0.05375 0
0.065625 0.053125 0
0.0525 0.0525 0
0.0778125 0.0403125 0
0.0648438 0.0398438 0
0.051875 0.039375 0
0.076875 0.026875 0
0.0640625 0.0265625 0
0.05125 0.02625 0
0.1025 0.0275 0
0.0896875 0.0271875 0
0.076875 0.026875 0
0.10125 0.01375 0
0.0885937 0.0135938 0
0.0759375 0.0134375 0
0.1 0 0
0.0875 0 0
0.075 0 0
0.076875 0.026875 0
0.0640625 0.0265625 0
0.05125 0.02625 0
0.0759375 0.0134375 0
0.0632812 0.0132813 0
0.050625 0.013125 0
0.075 0 0
0.0625 0 0
0.05 0 0
0.0525 0.0525 0
0.039375 0.051875 0
0.02625 0.05125 0
0.051875 0.039375 0
0.0389063 0.0389063 0
0.0259375 0.0384375 0
0.05125 0.02625 0
0.0384375 0.0259375 0
0.025625 0.025625 0
0.02625 0.05125 0
0.013125 0.050625 0
0 0.05 0
0.0259375 0.0384375 0
0.0129688 0.0379688 0
0 0.0375 0
0.025625 0.025625 0
0.0128125 0.0253125 0
0 0.025 0
0.05125 0.02625 0
0.0384375 0.0259375 0
0.025625 0.025625 0
0.050625 0.013125 0
0.0379688 0.0129688 0
0.0253125 0.0128125 0
0.05 0 0
0.0375 0 0
0.025 0 0
0.025625 0.025625 0
0.0128125 0.0253125 0
0 0.025 0
0.0253125 0.0128125 0
0.0126563 0.0126563 0
0 0.0125 0
0.025 0 0
0.0125 0 0
0 0 0
0.2 0.1 0
0.18875 0.10125 0
0.1775 0.1025 0
0.2 0.0875 0
0.188594 0.0885938 0
0.177187 0.0896875 0
0.2 0.075 0
0.188438 0.0759375 0
0.176875 0.076875 0
0.1775 0.1025 0
0.16625 0.10375 0
0.155 0.105 0
0.177187 0.0896875 0
0.165781 0.0907813 0
0.154375 0.091875 0
0.176875 0.076875 0
0.165313 0.0778125 0
0.15375 0.07875 0
0.2 0.075 0
0.188438 0.0759375 0
0.176875 0.076875 0
0.2 0.0625 0
0.188281 0.0632813 0
0.176563 0.0640625 0
0.2 0.05 0
0.188125 0.050625 0
0.17625 0.05125 0
0.176875 0.076875 0
0.165313 0.0778125 0
0.15375 0.07875 0
0.176563 0.0640625 0
0.164844 0.0648438 0
0.153125 0.065625 0
0.17625 0.05125 0
0.164375 0.051875 0
0.1525 0.0525 0
0.155 0.105 0
0.14375 0.10625 0
0.1325 0.1075 0
0.154375 0.091875 0
0.142969 0.0929688 0
0.131562 0.0940625 0
0.15375 0.07875 0
0.142187 0.0796875 0
0.130625 0.080625 0
0.1325 0.1075 0
0.12125 0.10875 0
0.11 0.11 0
0.131562 0.0940625 0
0.120156 0.0951563 0
0.10875 0.09625 0
0.130625 0.080625 0
0.119063 0.0815625 0
0.1075 0.0825 0
0.15375 0.07875 0
0.142187 0.0796875 0
0.130625 0.080625 0
0.153125 0.065625 0
0.141406 0.0664062 0
0.129688 0.0671875 0
0.1525 0.0525 0
0.140625 0.053125 0
0.12875 0.05375 0
0.130625 0.080625 0
0.119063 0.0815625 0
0.1075 0.0825 0
0.129688 0.0671875 0
0.117969 0.0679688 0
0.10625 0.06875 0
0.12875 0.05375 0
0.116875 0.054375 0
0.105 0.055 0
0.2 0.05 0
0.188125 0.050625 0
0.17625 0.05125 0
0.2 0.0375 0
0.187969 0.0379688 0
0.175938 0.0384375 0
0.2 0.025 0
0.187813 0.0253125 0
0.175625 0.025625 0
0.17625 0.05125 0
0.164375 0.051875 0
0.1525 0.0525 0
0.175938 0.0384375 0
0.163906 0.0389063 0
0.151875 0.039375 0
0.175625 0.025625 0
0.163438 0.0259375 0
0.15125 0.02625 0
0.2 0.025 0
0.187813 0.0253125 0
0.175625 0.025625 0
0.2 0.0125 0
0.187656 0.0126563 0
0.175313 0.0128125 0
0.2 0 0
0.1875 0 0
0.175 0 0
0.175625 0.025625 0
0.163438 0.0259375 0
0.15125 0.02625 0
0.175313 0.0128125 0
0.162969 0.0129688 0
0.150625 0.013125 0
0.175 0 0
0.1625 0 0
0.15 0 0
0.1525 0.0525 0
0.140625 0.053125 0
0.12875 0.05375 0
0.151875 0.039375 0
0.139844 0.0398438 0
0.127813 0.0403125 0
0.15125 0.02625 0
0.139063 0.0265625 0
0.126875 0.026875 0
0.12875 0.05375 0
0.116875 0.054375 0
0.105 0.055 0
0.127813 0.0403125 0
0.115781 0.0407813 0
0.10375 0.04125 0
0.126875 0.026875 0
0.114688 0.0271875 0
0.1025 0.0275 0
0.15125 0.02625 0
0.139063 0.0265625 0
0.126875 0.026875 0
0.150625 0.013125 0
0.138281 0.0132813 0
0.125938 0.0134375 0
0.15 0 0
0.1375 0 0
0.125 0 0
0.126875 0.026875 0
0.114688 0.0271875 0
0.1025 0.0275 0
0.125938 0.0134375 0
0.113594 0.0135938 0
0.10125 0.01375 0
0.125 0 0
0.1125 0 0
0.1 0 0
0.1 0.2 0
0.0875 0.2 0
0.075 0.2 0
0.10125 0.18875 0
0.0885937 0.188594 0
0.0759375 0.188438 0
0.1025 0.1775 0
0.0896875 0.177187 0
0.076875 0.176875 0
0.075 0.2 0
0.0625 0.2 0
0.05 0.2 0
0.0759375 0.188438 0
0.0632813 0.188281 0
0.050625 0.188125 0
0.076875 0.176875 0
0.0640625 0.176563 0
0.05125 0.17625 0
0.1025 0.1775 0
0.0896875 0.177187 0
0.076875 0.176875 0
0.10375 0.16625 0
0.0907813 0.165781 0
0.0778125 0.165313 0
0.105 0.155 0
0.091875 0.154375 0
0.07875 0.15375 0
0.076875 0.176875 0
0.0640625 0.176563 0
0.05125 0.17625 0
0.0778125 0.165313 0
0.0648438 0.164844 0
0.051875 0.164375 0
0.07875 0.15375 0
0.065625 0.153125 0
0.0525 0.1525 0
0.05 0.2 0
0.0375 0.2 0
0.025 0.2 0
0.050625 0.188125 0
0.0379688 0.187969 0
0.0253125 0.187813 0
0.05125 0.17625 0
0.0384375 0.175938 0
0.025625 0.175625 0
0.025 0.2 0
0.0125 0.2 0
0 0.2 0
0.0253125 0.187813 0
0.0126563 0.187656 0
0 0.1875 0
0.025625 0.175625 0
0.0128125 0.175313 0
0 0.175 0
0.05125 0.17625 0
0.0384375 0.175938 0
0.025625 0.175625 0
0.051875 0.164375 0
0.0389063 0.163906 0
0.0259375 0.163438 0
0.0525 0.1525 0
0.039375 0.151875 0
0.02625 0.15125 0
0.025625 0.175625 0
0.0128125 0.175313 0
0 0.175 0
0.0259375 0.163438 0
0.0129688 0.162969 0
0 0.1625 0
0.02625 0.15125 0
0.013125 0.150625 0
0 0.15 0
0.105 0.155 0
0.091875 0.154375 0
0.07875 0.15375 0
0.10625 0.14375 0
0.0929688 0.142969 0
0.0796875 0.142187 0
0.1075 0.1325 0
0.0940625 0.131562 0
0.080625 0.130625 0
0.07875 0.15375 0
0.065625 0.153125 0
0.0525 0.1525 0
0.0796875 0.142187 0
0.0664063 0.141406 0
0.053125 0.140625 0
0.080625 0.130625 0
0.0671875 0.129688 0
0.05375 0.12875 0
0.1075 0.1325 0
0.0940625 0.131562 0
0.080625 0.130625 0
0.10875 0.12125 0
0.0951563 0.120156 0
0.0815625 0.119063 0
0.11 0.11 0
0.09625 0.10875 0
0.0825 0.1075 0
0.080625 0.130625 0
0.0671875 0.129688 0
0.05375 0.12875 0
0.0815625 0.119063 0
0.0679688 0.117969 0
0.054375 0.116875 0
0.0825 0.1075 0
0.06875 0.10625 0
0.055 0.105 0
0.0525 0.1525 0
0.039375 0.151875 0
0.02625 0.15125 0
0.053125 0.140625 0
0.0398438 0.139844 0
0.0265625 0.139063 0
0.05375 0.12875 0
0.0403125 0.127813 0
0.026875 0.126875 0
0.02625 0.15125 0
0.013125 0.150625 0
0 0.15 0
0.0265625 0.139063 0
0.0132813 0.138281 0
0 0.1375 0
0.026875 0.126875 0
0.0134375 0.125938 0
0 0.125 0
0.05375 0.12875 0
0.0403125 0.127813 0
0.026875 0.126875 0
0.054375 0.116875 0
0.0407813 0.115781 0
0.0271875 0.114688 0
0.055 0.105 0
0.04125 0.10375 0
0.0275 0.1025 0
0.026875 0.126875 0
0.0134375 0.125938 0
0 0.125 0
0.0271875 0.114688 0
0.0135938 0.113594 0
0 0.1125 0
0.0275 0.1025 0
0.01375 0.10125 0
0 0.1 0
0.29 0.11 0
0.27875 0.10875 0
0.2675 0.1075 0
0.29125 0.09625 0
0.279844 0.0951563 0
0.268437 0.0940625 0
0.2925 0.0825 0
0.280938 0.0815625 0
0.269375 0.080625 0
0.2675 0.1075 0
0.25625 0.10625 0
0.245 0.105 0
0.268437 0.0940625 0
0.257031 0.0929688 0
0.245625 0.091875 0
0.269375 0.080625 0
0.257812 0.0796875 0
0.24625 0.07875 0
0.2925 0.0825 0
0.280938 0.0815625 0
0.269375 0.080625 0
0.29375 0.06875 0
0.282031 0.0679688 0
0.270313 0.0671875 0
0.295 0.055 0
0.283125 0.054375 0
0.27125 0.05375 0
0.269375 0.080625 0
0.257812 0.0796875 0
0.24625 0.07875 0
0.270313 0.0671875 0
0.258594 0.0664062 0
0.246875 0.065625 0
0.27125 0.05375 0
0.259375 0.053125 0
0.2475 0.0525 0
0.245 0.105 0
0.23375 0.10375 0
0.2225 0.1025 0
0.245625 0.091875 0
0.234219 0.0907813 0
0.222813 0.0896875 0
0.24625 0.07875 0
0.234687 0.0778125 0
0.223125 0.076875 0
0.2225 0.1025 0
0.21125 0.10125 0
0.2 0.1 0
0.222813 0.0896875 0
0.211406 0.0885937 0
0.2 0.0875 0
0.223125 0.076875 0
0.211563 0.0759375 0
0.2 0.075 0
0.24625 0.07875 0
0.234687 0.0778125 0
0.223125 0.076875 0
0.246875 0.065625 0
0.235156 0.0648438 0
0.223438 0.0640625 0
0.2475 0.0525 0
0.235625 0.051875 0
0.22375 0.05125 0
0.223125 0.076875 0
0.211563 0.0759375 0
0.2 0.075 0
0.223438 0.0640625 0
0.211719 0.0632813 0
0.2 0.0625 0
0.22375 0.05125 0
0.211875 0.050625 0
0.2 0.05 0
0.295 0.055 0
0.283125 0.054375 0
0.27125 0.05375 0
0.29625 0.04125 0
0.284219 0.0407813 0
0.272188 0.0403125 0
0.2975 0.0275 0
0.285312 0.0271875 0
0.273125 0.026875 0
0.27125 0.05375 0
0.259375 0.053125 0
0.2475 0.0525 0
0.272188 0.0403125 0
0.260156 0.0398438 0
0.248125 0.039375 0
0.273125 0.026875 0
0.260937 0.0265625 0
0.24875 0.02625 0
0.2975 0.0275 0
0.285312 0.0271875 0
0.273125 0.026875 0
0.29875 0.01375 0
0.286406 0.0135938 0
0.274062 0.0134375 0
0.3 0 0
0.2875 0 0
0.275 0 0
0.273125 0.026875 0
0.260937 0.0265625 0
0.24875 0.02625 0
0.274062 0.0134375 0
0.261719 0.0132813 0
0.249375 0.013125 0
0.275 0 0
0.2625 0 0
0.25 0 0
0.2475 0.0525 0
0.235625 0.051875 0
0.22375 0.05125 0
0.248125 0.039375 0
[...]
POINT_DATA 5760
SCALARS x_velo double 1
LOOKUP_TABLE default
0.254309 0.245412 0.239459 0.244511 0.233939 0.225832 0.229479 0.21798 0.208473 0.239459 0.234391 0.230955 0.225832 0.218977 0.213866 0.208473 0.200359 0.193947 0.229479 0.21798 0.208473 0.210144 0.19808 0.187701 0.1869 0.174695 0.163829 0.208473 0.200359 0.193947 0.187701 0.17868 0.171293 0.163829 0.154232 0.146133 0.230955 0.227879 0.2255 0.213866 0.209532 0.206266 0.193947 0.188622 0.184632 0.2255 0.223239 0.221297 0.206266 0.203514 0.201443 0.184632 0.18149 0.179358 0.193947 0.188622 0.184632 0.171293 0.165181 0.160591 0.146133 0.139393 0.13428 0.184632 0.18149 0.179358 0.160591 0.157159 0.155042 0.13428 0.130584 0.128495 0.1869 0.174695 0.163829 0.159327 0.147317 0.136442 0.123594 0.112932 0.103144 0.163829 0.154232 0.146133 0.136442 0.126692 0.118286 0.103144 0.0942815 0.0865048 0.123594 0.112932 0.103144 0.0735388 0.0663013 0.0596807 0 0 0 0.103144 0.0942815 0.0865048 0.0596807 0.0536425 0.0483178 0 0 0 0.146133 0.139393 0.13428 0.118286 0.11119 0.105684 0.0865048 0.0798232 0.0744764 0.13428 0.130584 0.128495 0.105684 0.101751 0.0997174 0.0744764 0.070602 0.0687091 0.0865048 0.0798232 0.0744764 0.0483178 0.0436563 0.0398092 0 0 0 0.0744764 0.070602 0.0687091 0.0398092 0.0368959 0.03547 0 0 0 0.372585 0.363672 0.349037 0.352637 0.342818 0.329246 0.328281 0.318607 0.306257 0.349037 0.33126 0.310923 0.329246 0.313822 0.296752 0.306257 0.292657 0.277962 0.328281 0.318607 0.306257 0.30275 0.29352 0.282237 0.274358 0.265882 0.255582 0.306257 0.292657 0.277962 0.282237 0.269944 0.256732 0.255582 0.244324 0.232183 0.310923 0.29262 0.276206 0.296752 0.280981 0.266366 0.277962 0.264013 0.250862 0.276206 0.263715 0.254309 0.266366 0.254256 0.244511 0.250862 0.239363 0.229479 0.277962 0.264013 0.250862 0.256732 0.243904 0.231536 0.232183 0.220132 0.208272 0.250862 0.239363 0.229479 0.231536 0.220261 0.210144 0.208272 0.197147 0.1869 0.274358 0.265882 0.255582 0.23923 0.232133 0.223241 0.189385 0.184339 0.177596 0.255582 0.244324 0.232183 0.223241 0.213309 0.202401 0.177596 0.169737 0.160856 0.189385 0.184339 0.177596 0.113951 0.111615 0.107923 0 0 0 0.177596 0.169737 0.160856 0.107923 0.103377 0.0979201 0 0 0 0.232183 0.220132 0.208272 0.202401 0.191311 0.180164 0.160856 0.151572 0.142036 0.208272 0.197147 0.1869 0.180164 0.169448 0.159327 0.142036 0.132659 0.123594 0.160856 0.151572 0.142036 0.0979201 0.0920562 0.0858547 0 0 0 0.142036 0.132659 0.123594 0.0858547 0.0796375 0.0735388 0 0 0 0.212696 0.237495 0.256281 0.212042 0.236617 0.255052 0.216693 0.238183 0.254778 0.256281 0.270906 0.281629 0.255052 0.269398 0.279985 0.254778 0.267673 0.277393 0.216693 0.238183 0.254778 0.225622 0.242062 0.255351 0.23598 0.24649 0.255686 0.254778 0.267673 0.277393 0.255351 0.265708 0.273855 0.255686 0.26289 0.268991 0.281629 0.289802 0.295367 0.279985 0.288006 0.293476 0.277393 0.284723 0.289733 0.295367 0.298733 0.299822 0.293476 0.296748 0.297814 0.289733 0.292691 0.293575 0.277393 0.284723 0.289733 0.273855 0.279931 0.284117 0.268991 0.273451 0.276555 0.289733 0.292691 0.293575 0.284117 0.286491 0.287106 0.276555 0.278177 0.278406 0.23598 0.24649 0.255686 0.245676 0.250088 0.254963 0.252358 0.251673 0.25236 0.255686 0.26289 0.268991 0.254963 0.258796 0.262535 0.25236 0.252913 0.254188 0.252358 0.251673 0.25236 0.255211 0.250151 0.247234 0.254309 0.245412 0.239459 0.25236 0.252913 0.254188 0.247234 0.244833 0.243688 0.239459 0.234391 0.230955 0.268991 0.273451 0.276555 0.262535 0.265148 0.266973 0.254188 0.254859 0.255305 0.276555 0.278177 0.278406 0.266973 0.267705 0.267475 0.255305 0.255063 0.254313 0.254188 0.254859 0.255305 0.243688 0.242456 0.241489 0.230955 0.227879 0.2255 0.255305 0.255063 0.254313 0.241489 0.240252 0.23892 0.2255 0.223239 0.221297 0.309954 0.320354 0.332291 0.332453 0.340842 0.349375 0.334411 0.340215 0.345428 0.332291 0.344698 0.357543 0.349375 0.356955 0.363407 0.345428 0.349069 0.350985 0.334411 0.340215 0.345428 0.321067 0.325075 0.32813 0.295403 0.298683 0.300869 0.345428 0.349069 0.350985 0.32813 0.329518 0.32916 0.300869 0.301433 0.300285 0.357543 0.368362 0.376212 0.363407 0.366805 0.366869 0.350985 0.350043 0.346104 0.376212 0.377861 0.372585 0.366869 0.362132 0.352637 0.346104 0.338843 0.328281 0.350985 0.350043 0.346104 0.32916 0.326363 0.321071 0.300285 0.297024 0.291592 0.346104 0.338843 0.328281 0.321071 0.313216 0.30275 0.291592 0.284034 0.274358 0.295403 0.298683 0.300869 0.25517 0.258656 0.261095 0.195757 0.199511 0.202462 0.300869 0.301433 0.300285 0.261095 0.262046 0.261391 0.202462 0.204229 0.204645 0.195757 0.199511 0.202462 0.112049 0.115008 0.117602 0 0 0 0.202462 0.204229 0.204645 0.117602 0.119543 0.120678 0 0 0 0.300285 0.297024 0.291592 0.261391 0.25883 0.254266 0.204645 0.203445 0.200489 0.291592 0.284034 0.274358 0.254266 0.247765 0.23923 0.200489 0.195818 0.189385 0.204645 0.203445 0.200489 0.120678 0.120818 0.119747 0 0 0 0.200489 0.195818 0.189385 0.119747 0.117536 0.113951 0 0 0 0.276855 0.28072 0.284609 0.278361 0.284372 0.290578 0.270537 0.277933 0.285613 0.284609 0.288521 0.292375 0.290578 0.296976 0.303507 0.285613 0.293507 0.301547 0.270537 0.277933 0.285613 0.252992 0.261113 0.269617 0.225373 0.23354 0.242218 0.285613 0.293507 0.301547 0.269617 0.278376 0.287284 0.242218 0.251266 0.260574 0.292375 0.29633 0.300362 0.303507 0.310254 0.317211 0.301547 0.30965 0.317791 0.300362 0.304814 0.309954 0.317211 0.324604 0.332453 0.317791 0.326021 0.334411 0.301547 0.30965 0.317791 0.287284 0.296131 0.304821 0.260574 0.269863 0.278993 0.317791 0.326021 0.334411 0.304821 0.313152 0.321067 0.278993 0.287564 0.295403 0.225373 0.23354 0.242218 0.187119 0.194493 0.202471 0.137662 0.143376 0.149679 0.242218 0.251266 0.260574 0.202471 0.210952 0.219874 0.149679 0.156533 0.163943 0.137662 0.143376 0.149679 0.0759666 0.0791899 0.0828149 0 0 0 0.149679 0.156533 0.163943 0.0828149 0.0868165 0.0912719 0 0 0 0.260574 0.269863 0.278993 0.219874 0.228976 0.238128 0.163943 0.171735 0.179835 0.278993 0.287564 0.295403 0.238128 0.246913 0.25517 0.179835 0.187906 0.195757 0.163943 0.171735 0.179835 0.0912719 0.0960652 0.101238 0 0 0 0.179835 0.187906 0.195757 0.101238 0.106571 0.112049 0 0 0 0.125536 0.11343 0.100825 0.131384 0.119487 0.107041 0.146825 0.135781 0.12413 0.100825 0.0876383 0.0737788 0.107041 0.0939543 0.0801239 0.12413 0.111737 0.0984637 0.146825 0.135781 0.12413 0.169598 0.160113 0.149973 0.196593 0.18931 0.181411 0.12413 0.111737 0.0984637 0.149973 0.139011 0.127044 0.181411 0.172694 0.162949 0.0737788 0.0595995 0.0453874 0.0801239 0.0658911 0.0515006 0.0984637 0.0845812 0.0702251 0.0453874 0.0315766 0.0190403 0.0515006 0.0373801 0.0243113 0.0702251 0.0556982 0.0415414 0.0984637 0.0845812 0.0702251 0.127044 0.114239 0.100569 0.162949 0.152247 0.140427 0.0702251 0.0556982 0.0415414 0.100569 0.0861883 0.0712849 0.140427 0.127505 0.113435 0.196593 0.18931 0.181411 0.223884 0.219314 0.214241 0.248219 0.246598 0.244667 0.181411 0.172694 0.162949 0.214241 0.208492 0.201861 0.244667 0.242307 0.239352 0.248219 0.246598 0.244667 0.266429 0.267681 0.268813 0.276855 0.28072 0.284609 0.244667 0.242307 0.239352 0.268813 0.269776 0.270457 0.284609 0.288521 0.292375 0.162949 0.152247 0.140427 0.201861 0.194379 0.185823 0.239352 0.235862 0.231653 0.140427 0.127505 0.113435 0.185823 0.176214 0.165307 0.231653 0.226824 0.221435 0.239352 0.235862 0.231653 0.270457 0.270976 0.271234 0.292375 0.29633 0.300362 0.231653 0.226824 0.221435 0.271234 0.271472 0.271567 0.300362 0.304814 0.309954 0.281541 0.284471 0.287486 0.268356 0.268853 0.269288 0.248057 0.245811 0.243307 0.287486 0.290604 0.293767 0.269288 0.26962 0.269752 0.243307 0.240428 0.237023 0.248057 0.245811 0.243307 0.222271 0.217184 0.211644 0.194182 0.186488 0.178227 0.243307 0.240428 0.237023 0.211644 0.205479 0.198497 0.178227 0.169201 0.159212 0.293767 0.297146 0.300729 0.269752 0.269811 0.26971 0.237023 0.233159 0.22866 0.300729 0.304876 0.309894 0.26971 0.2697 0.269654 0.22866 0.22363 0.218139 0.237023 0.233159 0.22866 0.198497 0.190738 0.181994 0.159212 0.148347 0.13646 0.22866 0.22363 0.218139 0.181994 0.172295 0.161411 0.13646 0.12358 0.109676 0.194182 0.186488 0.178227 0.167052 0.157267 0.146872 0.144733 0.133497 0.121689 0.178227 0.169201 0.159212 0.146872 0.135706 0.123598 0.121689 0.10918 0.0958422 0.144733 0.133497 0.121689 0.130215 0.118225 0.105706 0.125536 0.11343 0.100825 0.121689 0.10918 0.0958422 0.105706 0.0925688 0.0787159 0.100825 0.0876383 0.0737788 0.159212 0.148347 0.13646 0.123598 0.11073 0.0970893 0.0958422 0.0819556 0.0676689 0.13646 0.12358 0.109676 0.0970893 0.0828447 0.0682018 0.0676689 0.0532956 0.0393889 0.0958422 0.0819556 0.0676689 0.0787159 0.0644935 0.0501529 0.0737788 0.0595995 0.0453874 0.0676689 0.0532956 0.0393889 0.0501529 0.0361274 0.0232057 0.0453874 0.0315766 0.0190403 0 0 0 0.0843188 0.0876307 0.0912736 0.150756 0.156408 0.162511 0 0 0 0.0912736 0.0952257 0.0995449 0.162511 0.169017 0.175907 0.150756 0.156408 0.162511 0.202179 0.209181 0.216591 0.240363 0.247835 0.255617 0.162511 0.169017 0.175907 0.216591 0.224297 0.232227 0.255617 0.263566 0.271586 0 0 0 0.0995449 0.104107 0.108925 0.175907 0.182993 0.190183 0 0 0 0.108925 0.113793 0.118675 0.190183 0.197157 0.203728 0.175907 0.182993 0.190183 0.232227 0.240124 0.247871 0.271586 0.279427 0.286983 0.190183 0.197157 0.203728 0.247871 0.255102 0.261693 0.286983 0.29391 0.300082 0.240363 0.247835 0.255617 0.266491 0.273701 0.28115 0.281748 0.288186 0.294854 0.255617 0.263566 0.271586 0.28115 0.288729 0.296368 0.294854 0.30172 0.308757 0.281748 0.288186 0.294854 0.286684 0.291791 0.297123 0.281541 0.284471 0.287486 0.294854 0.30172 0.308757 0.297123 0.302713 0.308535 0.287486 0.290604 0.293767 0.271586 0.279427 0.286983 0.296368 0.303897 0.311262 0.308757 0.315924 0.323229 0.286983 0.29391 0.300082 0.311262 0.318297 0.32497 0.323229 0.330731 0.338504 0.308757 0.315924 0.323229 0.308535 0.314699 0.321215 0.293767 0.297146 0.300729 0.323229 0.330731 0.338504 0.321215 0.328293 0.335943 0.300729 0.304876 0.309894 0 0 0 0.118675 0.121081 0.123062 0.203728 0.206472 0.208381 0 0 0 0.123062 0.124392 0.12493 0.208381 0.20916 0.208672 0.203728 0.206472 0.208381 0.261693 0.26399 0.26526 0.300082 0.302246 0.303363 0.208381 0.20916 0.208672 0.26526 0.265163 0.263604 0.303363 0.303 0.301085 0 0 0 0.12493 0.124546 0.123057 0.208672 0.206739 0.203253 0 0 0 0.123057 0.120551 0.116836 0.203253 0.19829 0.191825 0.208672 0.206739 0.203253 0.263604 0.260378 0.255409 0.301085 0.297317 0.29165 0.203253 0.19829 0.191825 0.255409 0.248786 0.240427 0.29165 0.284163 0.274867 0.300082 0.302246 0.303363 0.32497 0.328116 0.330326 0.338504 0.343801 0.348467 0.303363 0.303 0.301085 0.330326 0.330966 0.329973 0.348467 0.351563 0.352947 0.338504 0.343801 0.348467 0.335943 0.344313 0.352796 0.309894 0.32067 0.333098 0.348467 0.351563 0.352947 0.352796 0.360298 0.366625 0.333098 0.346101 0.359616 0.301085 0.297317 0.29165 0.329973 0.326771 0.321315 0.352947 0.35162 0.347473 0.29165 0.284163 0.274867 0.321315 0.313608 0.303607 0.347473 0.340323 0.330199 0.352947 0.35162 0.347473 0.366625 0.369914 0.369917 0.359616 0.371137 0.379676 0.347473 0.340323 0.330199 0.369917 0.365287 0.356139 0.379676 0.381941 0.377247 0.263519 0.255587 0.250531 0.263264 0.259094 0.256976 0.259235 0.25934 0.260728 0.250531 0.246268 0.243559 0.256976 0.25528 0.254761 0.260728 0.261891 0.263698 0.259235 0.25934 0.260728 0.25136 0.25646 0.261938 0.240483 0.251572 0.261262 0.260728 0.261891 0.263698 0.261938 0.266286 0.270467 0.261262 0.268886 0.27534 0.243559 0.241079 0.239184 0.254761 0.254035 0.253476 0.263698 0.264796 0.265585 0.239184 0.23728 0.235574 0.253476 0.252541 0.251413 0.265585 0.2656 0.265021 0.263698 0.264796 0.265585 0.270467 0.273434 0.275542 0.27534 0.280084 0.283411 0.265585 0.2656 0.265021 0.275542 0.276485 0.276398 0.283411 0.285202 0.285544 0.240483 0.251572 0.261262 0.228972 0.245866 0.259533 0.218919 0.240714 0.257566 0.261262 0.268886 0.27534 0.259533 0.27021 0.278619 0.257566 0.270677 0.28057 0.218919 0.240714 0.257566 0.213156 0.237887 0.256449 0.212696 0.237495 0.256281 0.257566 0.270677 0.28057 0.256449 0.270903 0.281575 0.256281 0.270906 0.281629 0.27534 0.280084 0.283411 0.278619 0.284908 0.28926 0.28057 0.288042 0.293162 0.283411 0.285202 0.285544 0.28926 0.29176 0.29246 0.293162 0.296204 0.297145 0.28057 0.288042 0.293162 0.281575 0.289667 0.295191 0.281629 0.289802 0.295367 0.293162 0.296204 0.297145 0.295191 0.298505 0.299598 0.295367 0.298733 0.299822 0 0 0 0.116836 0.114302 0.110584 0.191825 0.18663 0.179998 0 0 0 0.110584 0.1061 0.100804 0.179998 0.172402 0.163929 0.191825 0.18663 0.179998 0.240427 0.233418 0.224908 0.274867 0.266748 0.2571 0.179998 0.172402 0.163929 0.224908 0.21552 0.205309 0.2571 0.246648 0.235454 0 0 0 0.100804 0.095122 0.0891104 0.163929 0.155091 0.146018 0 0 0 0.0891104 0.0830556 0.07707 0.146018 0.137065 0.128365 0.163929 0.155091 0.146018 0.205309 0.194945 0.184532 0.235454 0.224353 0.213432 0.146018 0.137065 0.128365 0.184532 0.174501 0.164996 0.213432 0.203174 0.193711 0.274867 0.266748 0.2571 0.303607 0.294909 0.284459 0.330199 0.321106 0.309619 0.2571 0.246648 0.235454 0.284459 0.273139 0.261035 0.309619 0.297018 0.283454 0.330199 0.321106 0.309619 0.356139 0.34679 0.333948 0.377247 0.36872 0.354546 0.309619 0.297018 0.283454 0.333948 0.319376 0.303262 0.354546 0.337288 0.317552 0.235454 0.224353 0.213432 0.261035 0.249287 0.237959 0.283454 0.270586 0.258459 0.213432 0.203174 0.193711 0.237959 0.227621 0.218324 0.258459 0.24787 0.238766 0.283454 0.270586 0.258459 0.303262 0.288423 0.27467 0.317552 0.299923 0.284187 0.258459 0.24787 0.238766 0.27467 0.263324 0.254225 0.284187 0.272348 0.263519 0 0 0 0.07707 0.0699579 0.0633793 0.128365 0.118127 0.108651 0 0 0 0.0633793 0.0573367 0.0519574 0.108651 0.100027 0.0924167 0.128365 0.118127 0.108651 0.164996 0.153661 0.143348 0.193711 0.182335 0.172182 0.108651 0.100027 0.0924167 0.143348 0.134087 0.126091 0.172182 0.163229 0.15569 0 0 0 0.0519574 0.0472278 0.043305 0.0924167 0.0858741 0.0806558 0 0 0 0.043305 0.0403416 0.0388943 0.0806558 0.0769059 0.0750892 0.0924167 0.0858741 0.0806558 0.126091 0.119364 0.114179 0.15569 0.149447 0.144746 0.0806558 0.0769059 0.0750892 0.114179 0.110495 0.108585 0.144746 0.141341 0.139381 0.193711 0.182335 0.172182 0.218324 0.207127 0.197499 0.238766 0.228135 0.219372 0.172182 0.163229 0.15569 0.197499 0.189165 0.182376 0.219372 0.211943 0.20613 0.238766 0.228135 0.219372 0.254225 0.244509 0.237175 0.263519 0.255587 0.250531 0.219372 0.211943 0.20613 0.237175 0.23103 0.226553 0.250531 0.246268 0.243559 0.15569 0.149447 0.144746 0.182376 0.17678 0.172602 0.20613 0.201311 0.197719 0.144746 0.141341 0.139381 0.172602 0.169456 0.167478 0.197719 0.194854 0.192876 0.20613 0.201311 0.197719 0.226553 0.222747 0.219905 0.243559 0.241079 0.239184 0.197719 0.194854 0.192876 0.219905 0.217459 0.215575 0.239184 0.23728 0.235574 0.238015 0.240414 0.243296 0.231373 0.234024 0.237282 0.220387 0.222939 0.226153 0.243296 0.246909 0.251223 0.237282 0.241425 0.24648 0.226153 0.230324 0.235531 0.220387 0.222939 0.226153 0.204415 0.206582 0.209396 0.18256 0.184162 0.186329 0.226153 0.230324 0.235531 0.209396 0.213145 0.217957 0.186329 0.189322 0.193301 0.251223 0.256274 0.261983 0.24648 0.252587 0.259735 0.235531 0.242017 0.249847 0.261983 0.268989 0.276855 0.259735 0.268435 0.278361 0.249847 0.259419 0.270537 0.235531 0.242017 0.249847 0.217957 0.224163 0.231907 0.193301 0.198648 0.205595 0.249847 0.259419 0.270537 0.231907 0.241532 0.252992 0.205595 0.214451 0.225373 0.18256 0.184162 0.186329 0.153531 0.154515 0.155935 0.11536 0.115804 0.11653 0.186329 0.189322 0.193301 0.155935 0.158001 0.160872 0.11653 0.117683 0.119384 0.11536 0.115804 0.11653 0.0653569 0.065448 0.0656684 0 0 0 0.11653 0.117683 0.119384 0.0656684 0.0660958 0.0667873 0 0 0 0.193301 0.198648 0.205595 0.160872 0.164932 0.170466 0.119384 0.121957 0.125696 0.205595 0.214451 0.225373 0.170466 0.177751 0.187119 0.125696 0.130783 0.137662 0.119384 0.121957 0.125696 0.0667873 0.0679259 0.0697582 0 0 0 0.125696 0.130783 0.137662 0.0697582 0.0723076 0.0759666 0 0 0 0.229307 0.229524 0.229826 0.222057 0.222305 0.22264 0.211788 0.212027 0.212341 0.229826 0.230293 0.230958 0.22264 0.223144 0.223848 0.212341 0.212806 0.213445 0.211788 0.212027 0.212341 0.197477 0.197681 0.197938 0.177738 0.177894 0.17808 0.212341 0.212806 0.213445 0.197938 0.198315 0.198821 0.17808 0.178348 0.178694 0.230958 0.231924 0.23327 0.223848 0.224866 0.226277 0.213445 0.214366 0.215635 0.23327 0.235267 0.238015 0.226277 0.228409 0.231373 0.215635 0.217607 0.220387 0.213445 0.214366 0.215635 0.198821 0.199543 0.200528 0.178694 0.179179 0.179816 0.215635 0.217607 0.220387 0.200528 0.202125 0.204415 0.179816 0.180929 0.18256 0.177738 0.177894 0.17808 0.150776 0.150884 0.151001 0.114233 0.114298 0.114359 0.17808 0.178348 0.178694 0.151001 0.151166 0.151363 0.114359 0.114443 0.114528 0.114233 0.114298 0.114359 0.0651725 0.0652047 0.0652254 0 0 0 0.114359 0.114443 0.114528 0.0652254 0.0652571 0.0652725 0 0 0 0.178694 0.179179 0.179816 0.151363 0.151629 0.151937 0.114528 0.114633 0.114695 0.179816 0.180929 0.18256 0.151937 0.152573 0.153531 0.114695 0.114954 0.11536 0.114528 0.114633 0.114695 0.0652725 0.0652968 0.0652424 0 0 0 0.114695 0.114954 0.11536 0.0652424 0.0652829 0.0653569 0 0 0 0.242888 0.242125 0.241144 0.24268 0.241939 0.240991 0.242403 0.241753 0.24093 0.241144 0.239796 0.238037 0.240991 0.239697 0.238017 0.24093 0.239816 0.238381 0.242403 0.241753 0.24093 0.241956 0.241452 0.240822 0.241178 0.24085 0.240451 0.24093 0.239816 0.238381 0.240822 0.239983 0.238919 0.240451 0.23994 0.239317 0.238037 0.235605 0.23241 0.238017 0.235706 0.232681 0.238381 0.236418 0.233863 0.23241 0.227875 0.221818 0.232681 0.228399 0.222694 0.233863 0.230253 0.225452 0.238381 0.236418 0.233863 0.238919 0.237476 0.235617 0.239317 0.238487 0.237447 0.233863 0.230253 0.225452 0.235617 0.232994 0.229515 0.237447 0.235984 0.234054 0.241178 0.24085 0.240451 0.239848 0.239701 0.239538 0.237681 0.237695 0.237743 0.240451 0.23994 0.239317 0.239538 0.239361 0.239182 0.237743 0.23786 0.23807 0.237681 0.237695 0.237743 0.23432 0.23446 0.234666 0.229307 0.229524 0.229826 0.237743 0.23786 0.23807 0.234666 0.235003 0.235503 0.229826 0.230293 0.230958 0.239317 0.238487 0.237447 0.239182 0.238971 0.238754 0.23807 0.238403 0.238909 0.237447 0.235984 0.234054 0.238754 0.238461 0.238094 0.238909 0.239652 0.240678 0.23807 0.238403 0.238909 0.235503 0.236239 0.237281 0.230958 0.231924 0.23327 0.238909 0.239652 0.240678 0.237281 0.238809 0.240902 0.23327 0.235267 0.238015 0.221818 0.216438 0.20978 0.222694 0.217624 0.211345 0.225452 0.22117 0.215846 0.20978 0.201663 0.191722 0.211345 0.203692 0.194311 0.215846 0.209355 0.201368 0.225452 0.22117 0.215846 0.229515 0.226379 0.222441 0.234054 0.232265 0.229959 0.215846 0.209355 0.201368 0.222441 0.217638 0.211678 0.229959 0.227144 0.223576 0.191722 0.179384 0.164001 0.194311 0.182632 0.168024 0.201368 0.19135 0.178705 0.164001 0.146461 0.125536 0.168024 0.151354 0.131384 0.178705 0.16428 0.146825 0.201368 0.19135 0.178705 0.211678 0.204082 0.194325 0.223576 0.21886 0.212559 0.178705 0.16428 0.146825 0.194325 0.183238 0.169598 0.212559 0.205507 0.196593 0.234054 0.232265 0.229959 0.238094 0.237671 0.237025 0.240678 0.241487 0.242351 0.229959 0.227144 0.223576 0.237025 0.236238 0.235116 0.242351 0.243419 0.244554 0.240678 0.241487 0.242351 0.240902 0.242675 0.244744 0.238015 0.240414 0.243296 0.242351 0.243419 0.244554 0.244744 0.247313 0.250297 0.243296 0.246909 0.251223 0.223576 0.21886 0.212559 0.235116 0.233365 0.230651 0.244554 0.245572 0.246235 0.212559 0.205507 0.196593 0.230651 0.227813 0.223884 0.246235 0.247367 0.248219 0.244554 0.245572 0.246235 0.250297 0.253623 0.257143 0.251223 0.256274 0.261983 0.246235 0.247367 0.248219 0.257143 0.261611 0.266429 0.261983 0.268989 0.276855 0.228849 0.228854 0.228865 0.221443 0.221452 0.221474 0.211125 0.211137 0.211164 0.228865 0.228879 0.228905