# vtk DataFile Version 3.0
#This file was generated by the deal.II library on 2024/9/17 at 11:45:36
ASCII
DATASET UNSTRUCTURED_GRID

POINTS 5760 double
0.11 0.11 0
0.09625 0.10875 0
0.0825 0.1075 0
0.10875 0.09625 0
0.0951562 0.0951563 0
0.0815625 0.0940625 0
0.1075 0.0825 0
0.0940625 0.0815625 0
0.080625 0.080625 0
0.0825 0.1075 0
0.06875 0.10625 0
0.055 0.105 0
0.0815625 0.0940625 0
0.0679688 0.0929688 0
0.054375 0.091875 0
0.080625 0.080625 0
0.0671875 0.0796875 0
0.05375 0.07875 0
0.1075 0.0825 0
0.0940625 0.0815625 0
0.080625 0.080625 0
0.10625 0.06875 0
0.0929688 0.0679688 0
0.0796875 0.0671875 0
0.105 0.055 0
0.091875 0.054375 0
0.07875 0.05375 0
0.080625 0.080625 0
0.0671875 0.0796875 0
0.05375 0.07875 0
0.0796875 0.0671875 0
0.0664063 0.0664062 0
0.053125 0.065625 0
0.07875 0.05375 0
0.065625 0.053125 0
0.0525 0.0525 0
0.055 0.105 0
0.04125 0.10375 0
0.0275 0.1025 0
0.054375 0.091875 0
0.0407813 0.0907813 0
0.0271875 0.0896875 0
0.05375 0.07875 0
0.0403125 0.0778125 0
0.026875 0.076875 0
0.0275 0.1025 0
0.01375 0.10125 0
0 0.1 0
0.0271875 0.0896875 0
0.0135938 0.0885938 0
0 0.0875 0
0.026875 0.076875 0
0.0134375 0.0759375 0
0 0.075 0
0.05375 0.07875 0
0.0403125 0.0778125 0
0.026875 0.076875 0
0.053125 0.065625 0
0.0398438 0.0648438 0
0.0265625 0.0640625 0
0.0525 0.0525 0
0.039375 0.051875 0
0.02625 0.05125 0
0.026875 0.076875 0
0.0134375 0.0759375 0
0 0.075 0
0.0265625 0.0640625 0
0.0132813 0.0632813 0
0 0.0625 0
0.02625 0.05125 0
0.013125 0.050625 0
0 0.05 0
0.105 0.055 0
0.091875 0.054375 0
0.07875 0.05375 0
0.10375 0.04125 0
0.0907813 0.0407813 0
0.0778125 0.0403125 0
0.1025 0.0275 0
0.0896875 0.0271875 0
0.076875 0.026875 0
0.07875 0.05375 0
0.065625 0.053125 0
0.0525 0.0525 0
0.0778125 0.0403125 0
0.0648438 0.0398438 0
0.051875 0.039375 0
0.076875 0.026875 0
0.0640625 0.0265625 0
0.05125 0.02625 0
0.1025 0.0275 0
0.0896875 0.0271875 0
0.076875 0.026875 0
0.10125 0.01375 0
0.0885937 0.0135938 0
0.0759375 0.0134375 0
0.1 0 0
0.0875 0 0
0.075 0 0
0.076875 0.026875 0
0.0640625 0.0265625 0
0.05125 0.02625 0
0.0759375 0.0134375 0
0.0632812 0.0132813 0
0.050625 0.013125 0
0.075 0 0
0.0625 0 0
0.05 0 0
0.0525 0.0525 0
0.039375 0.051875 0
0.02625 0.05125 0
0.051875 0.039375 0
0.0389063 0.0389063 0
0.0259375 0.0384375 0
0.05125 0.02625 0
0.0384375 0.0259375 0
0.025625 0.025625 0
0.02625 0.05125 0
0.013125 0.050625 0
0 0.05 0
0.0259375 0.0384375 0
0.0129688 0.0379688 0
0 0.0375 0
0.025625 0.025625 0
0.0128125 0.0253125 0
0 0.025 0
0.05125 0.02625 0
0.0384375 0.0259375 0
0.025625 0.025625 0
0.050625 0.013125 0
0.0379688 0.0129688 0
0.0253125 0.0128125 0
0.05 0 0
0.0375 0 0
0.025 0 0
0.025625 0.025625 0
0.0128125 0.0253125 0
0 0.025 0
0.0253125 0.0128125 0
0.0126563 0.0126563 0
0 0.0125 0
0.025 0 0
0.0125 0 0
0 0 0
0.2 0.1 0
0.18875 0.10125 0
0.1775 0.1025 0
0.2 0.0875 0
0.188594 0.0885938 0
0.177187 0.0896875 0
0.2 0.075 0
0.188438 0.0759375 0
0.176875 0.076875 0
0.1775 0.1025 0
0.16625 0.10375 0
0.155 0.105 0
0.177187 0.0896875 0
0.165781 0.0907813 0
0.154375 0.091875 0
0.176875 0.076875 0
0.165313 0.0778125 0
0.15375 0.07875 0
0.2 0.075 0
0.188438 0.0759375 0
0.176875 0.076875 0
0.2 0.0625 0
0.188281 0.0632813 0
0.176563 0.0640625 0
0.2 0.05 0
0.188125 0.050625 0
0.17625 0.05125 0
0.176875 0.076875 0
0.165313 0.0778125 0
0.15375 0.07875 0
0.176563 0.0640625 0
0.164844 0.0648438 0
0.153125 0.065625 0
0.17625 0.05125 0
0.164375 0.051875 0
0.1525 0.0525 0
0.155 0.105 0
0.14375 0.10625 0
0.1325 0.1075 0
0.154375 0.091875 0
0.142969 0.0929688 0
0.131562 0.0940625 0
0.15375 0.07875 0
0.142187 0.0796875 0
0.130625 0.080625 0
0.1325 0.1075 0
0.12125 0.10875 0
0.11 0.11 0
0.131562 0.0940625 0
0.120156 0.0951563 0
0.10875 0.09625 0
0.130625 0.080625 0
0.119063 0.0815625 0
0.1075 0.0825 0
0.15375 0.07875 0
0.142187 0.0796875 0
0.130625 0.080625 0
0.153125 0.065625 0
0.141406 0.0664062 0
0.129688 0.0671875 0
0.1525 0.0525 0
0.140625 0.053125 0
0.12875 0.05375 0
0.130625 0.080625 0
0.119063 0.0815625 0
0.1075 0.0825 0
0.129688 0.0671875 0
0.117969 0.0679688 0
0.10625 0.06875 0
0.12875 0.05375 0
0.116875 0.054375 0
0.105 0.055 0
0.2 0.05 0
0.188125 0.050625 0
0.17625 0.05125 0
0.2 0.0375 0
0.187969 0.0379688 0
0.175938 0.0384375 0
0.2 0.025 0
0.187813 0.0253125 0
0.175625 0.025625 0
0.17625 0.05125 0
0.164375 0.051875 0
0.1525 0.0525 0
0.175938 0.0384375 0
0.163906 0.0389063 0
0.151875 0.039375 0
0.175625 0.025625 0
0.163438 0.0259375 0
0.15125 0.02625 0
0.2 0.025 0
0.187813 0.0253125 0
0.175625 0.025625 0
0.2 0.0125 0
0.187656 0.0126563 0
0.175313 0.0128125 0
0.2 0 0
0.1875 0 0
0.175 0 0
0.175625 0.025625 0
0.163438 0.0259375 0
0.15125 0.02625 0
0.175313 0.0128125 0
0.162969 0.0129688 0
0.150625 0.013125 0
0.175 0 0
0.1625 0 0
0.15 0 0
0.1525 0.0525 0
0.140625 0.053125 0
0.12875 0.05375 0
0.151875 0.039375 0
0.139844 0.0398438 0
0.127813 0.0403125 0
0.15125 0.02625 0
0.139063 0.0265625 0
0.126875 0.026875 0
0.12875 0.05375 0
0.116875 0.054375 0
0.105 0.055 0
0.127813 0.0403125 0
0.115781 0.0407813 0
0.10375 0.04125 0
0.126875 0.026875 0
0.114688 0.0271875 0
0.1025 0.0275 0
0.15125 0.02625 0
0.139063 0.0265625 0
0.126875 0.026875 0
0.150625 0.013125 0
0.138281 0.0132813 0
0.125938 0.0134375 0
0.15 0 0
0.1375 0 0
0.125 0 0
0.126875 0.026875 0
0.114688 0.0271875 0
0.1025 0.0275 0
0.125938 0.0134375 0
0.113594 0.0135938 0
0.10125 0.01375 0
0.125 0 0
0.1125 0 0
0.1 0 0
0.1 0.2 0
0.0875 0.2 0
0.075 0.2 0
0.10125 0.18875 0
0.0885937 0.188594 0
0.0759375 0.188438 0
0.1025 0.1775 0
0.0896875 0.177187 0
0.076875 0.176875 0
0.075 0.2 0
0.0625 0.2 0
0.05 0.2 0
0.0759375 0.188438 0
0.0632813 0.188281 0
0.050625 0.188125 0
0.076875 0.176875 0
0.0640625 0.176563 0
0.05125 0.17625 0
0.1025 0.1775 0
0.0896875 0.177187 0
0.076875 0.176875 0
0.10375 0.16625 0
0.0907813 0.165781 0
0.0778125 0.165313 0
0.105 0.155 0
0.091875 0.154375 0
0.07875 0.15375 0
0.076875 0.176875 0
0.0640625 0.176563 0
0.05125 0.17625 0
0.0778125 0.165313 0
0.0648438 0.164844 0
0.051875 0.164375 0
0.07875 0.15375 0
0.065625 0.153125 0
0.0525 0.1525 0
0.05 0.2 0
0.0375 0.2 0
0.025 0.2 0
0.050625 0.188125 0
0.0379688 0.187969 0
0.0253125 0.187813 0
0.05125 0.17625 0
0.0384375 0.175938 0
0.025625 0.175625 0
0.025 0.2 0
0.0125 0.2 0
0 0.2 0
0.0253125 0.187813 0
0.0126563 0.187656 0
0 0.1875 0
0.025625 0.175625 0
0.0128125 0.175313 0
0 0.175 0
0.05125 0.17625 0
0.0384375 0.175938 0
0.025625 0.175625 0
0.051875 0.164375 0
0.0389063 0.163906 0
0.0259375 0.163438 0
0.0525 0.1525 0
0.039375 0.151875 0
0.02625 0.15125 0
0.025625 0.175625 0
0.0128125 0.175313 0
0 0.175 0
0.0259375 0.163438 0
0.0129688 0.162969 0
0 0.1625 0
0.02625 0.15125 0
0.013125 0.150625 0
0 0.15 0
0.105 0.155 0
0.091875 0.154375 0
0.07875 0.15375 0
0.10625 0.14375 0
0.0929688 0.142969 0
0.0796875 0.142187 0
0.1075 0.1325 0
0.0940625 0.131562 0
0.080625 0.130625 0
0.07875 0.15375 0
0.065625 0.153125 0
0.0525 0.1525 0
0.0796875 0.142187 0
0.0664063 0.141406 0
0.053125 0.140625 0
0.080625 0.130625 0
0.0671875 0.129688 0
0.05375 0.12875 0
0.1075 0.1325 0
0.0940625 0.131562 0
0.080625 0.130625 0
0.10875 0.12125 0
0.0951563 0.120156 0
0.0815625 0.119063 0
0.11 0.11 0
0.09625 0.10875 0
0.0825 0.1075 0
0.080625 0.130625 0
0.0671875 0.129688 0
0.05375 0.12875 0
0.0815625 0.119063 0
0.0679688 0.117969 0
0.054375 0.116875 0
0.0825 0.1075 0
0.06875 0.10625 0
0.055 0.105 0
0.0525 0.1525 0
0.039375 0.151875 0
0.02625 0.15125 0
0.053125 0.140625 0
0.0398438 0.139844 0
0.0265625 0.139063 0
0.05375 0.12875 0
0.0403125 0.127813 0
0.026875 0.126875 0
0.02625 0.15125 0
0.013125 0.150625 0
0 0.15 0
0.0265625 0.139063 0
0.0132813 0.138281 0
0 0.1375 0
0.026875 0.126875 0
0.0134375 0.125938 0
0 0.125 0
0.05375 0.12875 0
0.0403125 0.127813 0
0.026875 0.126875 0
0.054375 0.116875 0
0.0407813 0.115781 0
0.0271875 0.114688 0
0.055 0.105 0
0.04125 0.10375 0
0.0275 0.1025 0
0.026875 0.126875 0
0.0134375 0.125938 0
0 0.125 0
0.0271875 0.114688 0
0.0135938 0.113594 0
0 0.1125 0
0.0275 0.1025 0
0.01375 0.10125 0
0 0.1 0
0.29 0.11 0
0.27875 0.10875 0
0.2675 0.1075 0
0.29125 0.09625 0
0.279844 0.0951563 0
0.268437 0.0940625 0
0.2925 0.0825 0
0.280938 0.0815625 0
0.269375 0.080625 0
0.2675 0.1075 0
0.25625 0.10625 0
0.245 0.105 0
0.268437 0.0940625 0
0.257031 0.0929688 0
0.245625 0.091875 0
0.269375 0.080625 0
0.257812 0.0796875 0
0.24625 0.07875 0
0.2925 0.0825 0
0.280938 0.0815625 0
0.269375 0.080625 0
0.29375 0.06875 0
0.282031 0.0679688 0
0.270313 0.0671875 0
0.295 0.055 0
0.283125 0.054375 0
0.27125 0.05375 0
0.269375 0.080625 0
0.257812 0.0796875 0
0.24625 0.07875 0
0.270313 0.0671875 0
0.258594 0.0664062 0
0.246875 0.065625 0
0.27125 0.05375 0
0.259375 0.053125 0
0.2475 0.0525 0
0.245 0.105 0
0.23375 0.10375 0
0.2225 0.1025 0
0.245625 0.091875 0
0.234219 0.0907813 0
0.222813 0.0896875 0
0.24625 0.07875 0
0.234687 0.0778125 0
0.223125 0.076875 0
0.2225 0.1025 0
0.21125 0.10125 0
0.2 0.1 0
0.222813 0.0896875 0
0.211406 0.0885937 0
0.2 0.0875 0
0.223125 0.076875 0
0.211563 0.0759375 0
0.2 0.075 0
0.24625 0.07875 0
0.234687 0.0778125 0
0.223125 0.076875 0
0.246875 0.065625 0
0.235156 0.0648438 0
0.223438 0.0640625 0
0.2475 0.0525 0
0.235625 0.051875 0
0.22375 0.05125 0
0.223125 0.076875 0
0.211563 0.0759375 0
0.2 0.075 0
0.223438 0.0640625 0
0.211719 0.0632813 0
0.2 0.0625 0
0.22375 0.05125 0
0.211875 0.050625 0
0.2 0.05 0
0.295 0.055 0
0.283125 0.054375 0
0.27125 0.05375 0
0.29625 0.04125 0
0.284219 0.0407813 0
0.272188 0.0403125 0
0.2975 0.0275 0
0.285312 0.0271875 0
0.273125 0.026875 0
0.27125 0.05375 0
0.259375 0.053125 0
0.2475 0.0525 0
0.272188 0.0403125 0
0.260156 0.0398438 0
0.248125 0.039375 0
0.273125 0.026875 0
0.260937 0.0265625 0
0.24875 0.02625 0
0.2975 0.0275 0
0.285312 0.0271875 0
0.273125 0.026875 0
0.29875 0.01375 0
0.286406 0.0135938 0
0.274062 0.0134375 0
0.3 0 0
0.2875 0 0
0.275 0 0
0.273125 0.026875 0
0.260937 0.0265625 0
0.24875 0.02625 0
0.274062 0.0134375 0
0.261719 0.0132813 0
0.249375 0.013125 0
0.275 0 0
0.2625 0 0
0.25 0 0
0.2475 0.0525 0
0.235625 0.051875 0
0.22375 0.05125 0
0.248125 0.039375 0
[...]
POINT_DATA 5760
SCALARS x_velo double 1
LOOKUP_TABLE default
0.259834 0.249943 0.243093 0.248521 0.237161 0.228402 0.231184 0.219243 0.209467 0.243093 0.23718 0.232941 0.228402 0.220977 0.21533 0.209467 0.201184 0.194626 0.231184 0.219243 0.209467 0.208574 0.196549 0.186419 0.181087 0.169495 0.159503 0.209467 0.201184 0.194626 0.186419 0.177773 0.170783 0.159503 0.150939 0.143919 0.232941 0.229151 0.226087 0.21533 0.210512 0.206729 0.194626 0.189154 0.1849 0.226087 0.223425 0.221297 0.206729 0.203676 0.201443 0.1849 0.181607 0.179358 0.194626 0.189154 0.1849 0.170783 0.165013 0.16055 0.143919 0.138169 0.133743 0.1849 0.181607 0.179358 0.16055 0.157206 0.155042 0.133743 0.130496 0.128495 0.181087 0.169495 0.159503 0.14863 0.137844 0.128486 0.109394 0.100335 0.0924564 0.159503 0.150939 0.143919 0.128486 0.120449 0.113845 0.0924564 0.085706 0.0801684 0.109394 0.100335 0.0924564 0.0607941 0.0550019 0.0500219 0 0 0 0.0924564 0.085706 0.0801684 0.0500219 0.0457541 0.0422936 0 0 0 0.143919 0.138169 0.133743 0.113845 0.108477 0.104393 0.0801684 0.0757139 0.0723807 0.133743 0.130496 0.128495 0.104393 0.101457 0.0997174 0.0723807 0.0700412 0.0687091 0.0801684 0.0757139 0.0723807 0.0422936 0.0395168 0.0375188 0 0 0 0.0723807 0.0700412 0.0687091 0.0375188 0.0361492 0.03547 0 0 0 0.386525 0.376189 0.360213 0.364524 0.352965 0.337938 0.335951 0.324667 0.311031 0.360213 0.341124 0.31964 0.337938 0.321259 0.3032 0.311031 0.296388 0.280946 0.335951 0.324667 0.311031 0.304672 0.294054 0.281724 0.269608 0.259937 0.248786 0.311031 0.296388 0.280946 0.281724 0.268642 0.254962 0.248786 0.236963 0.22461 0.31964 0.30037 0.283113 0.3032 0.286619 0.271348 0.280946 0.266429 0.252907 0.283113 0.269895 0.259834 0.271348 0.258704 0.248521 0.252907 0.241174 0.231184 0.280946 0.266429 0.252907 0.254962 0.241871 0.229484 0.22461 0.212597 0.201078 0.252907 0.241174 0.231184 0.229484 0.218363 0.208574 0.201078 0.190521 0.181087 0.269608 0.259937 0.248786 0.228039 0.219794 0.210126 0.174098 0.16796 0.160464 0.248786 0.236963 0.22461 0.210126 0.199734 0.188763 0.160464 0.152177 0.143268 0.174098 0.16796 0.160464 0.10051 0.0973019 0.0930042 0 0 0 0.160464 0.152177 0.143268 0.0930042 0.0880829 0.0825806 0 0 0 0.22461 0.212597 0.201078 0.188763 0.177913 0.167372 0.143268 0.134285 0.125444 0.201078 0.190521 0.181087 0.167372 0.15755 0.14863 0.125444 0.117084 0.109394 0.143268 0.134285 0.125444 0.0825806 0.0769211 0.0712547 0 0 0 0.125444 0.117084 0.109394 0.0712547 0.0658202 0.0607941 0 0 0 0.217878 0.242325 0.260415 0.217321 0.241533 0.259266 0.222196 0.243242 0.259088 0.260415 0.274187 0.283951 0.259266 0.272745 0.28236 0.259088 0.27108 0.279806 0.222196 0.243242 0.259088 0.231451 0.247304 0.259772 0.242127 0.25189 0.260184 0.259088 0.27108 0.279806 0.259772 0.269177 0.276309 0.260184 0.266387 0.271457 0.283951 0.291254 0.296033 0.28236 0.289495 0.294165 0.279806 0.286232 0.290426 0.296033 0.298921 0.299822 0.294165 0.296949 0.297814 0.290426 0.292889 0.293575 0.279806 0.286232 0.290426 0.276309 0.281466 0.284825 0.271457 0.274987 0.277257 0.290426 0.292889 0.293575 0.284825 0.286699 0.287106 0.277257 0.278379 0.278406 0.242127 0.25189 0.260184 0.25204 0.255568 0.259476 0.258752 0.257081 0.256768 0.260184 0.266387 0.271457 0.259476 0.26228 0.264989 0.256768 0.256299 0.256572 0.258752 0.257081 0.256768 0.261357 0.255271 0.251375 0.259834 0.249943 0.243093 0.256768 0.256299 0.256572 0.251375 0.248008 0.245933 0.243093 0.23718 0.232941 0.271457 0.274987 0.277257 0.264989 0.266679 0.267675 0.256572 0.256348 0.255984 0.277257 0.278379 0.278406 0.267675 0.267914 0.267475 0.255984 0.255263 0.254313 0.256572 0.256348 0.255984 0.245933 0.243872 0.24214 0.232941 0.229151 0.226087 0.255984 0.255263 0.254313 0.24214 0.240454 0.23892 0.226087 0.223425 0.221297 0.328794 0.338243 0.34945 0.362141 0.36869 0.375151 0.366173 0.369241 0.371448 0.34945 0.361422 0.374004 0.375151 0.380657 0.384888 0.371448 0.371974 0.370644 0.366173 0.369241 0.371448 0.347869 0.348791 0.348521 0.313699 0.314014 0.313044 0.371448 0.371974 0.370644 0.348521 0.346538 0.342768 0.313044 0.310427 0.306101 0.374004 0.384664 0.392233 0.384888 0.386004 0.383684 0.370644 0.366485 0.35939 0.392233 0.393064 0.386525 0.383684 0.376454 0.364524 0.35939 0.349181 0.335951 0.370644 0.366485 0.35939 0.342768 0.336697 0.328295 0.306101 0.299831 0.291579 0.35939 0.349181 0.335951 0.328295 0.31762 0.304672 0.291579 0.281494 0.269608 0.313699 0.314014 0.313044 0.263759 0.264812 0.264584 0.195432 0.197551 0.19861 0.313044 0.310427 0.306101 0.264584 0.262802 0.259384 0.19861 0.198348 0.196645 0.195432 0.197551 0.19861 0.106894 0.109138 0.110787 0 0 0 0.19861 0.198348 0.196645 0.110787 0.111647 0.111579 0 0 0 0.306101 0.299831 0.291579 0.259384 0.254189 0.247156 0.196645 0.193382 0.188463 0.291579 0.281494 0.269608 0.247156 0.238455 0.228039 0.188463 0.182037 0.174098 0.196645 0.193382 0.188463 0.111579 0.110507 0.108255 0 0 0 0.188463 0.182037 0.174098 0.108255 0.104978 0.10051 0 0 0 0.318583 0.321166 0.323354 0.322053 0.327973 0.333634 0.310156 0.318367 0.326354 0.323354 0.324999 0.326162 0.333634 0.338924 0.343899 0.326354 0.333958 0.341194 0.310156 0.318367 0.326354 0.283765 0.293398 0.302875 0.24411 0.254256 0.264408 0.326354 0.333958 0.341194 0.302875 0.311974 0.320631 0.264408 0.274325 0.28389 0.326162 0.326899 0.327353 0.343899 0.348577 0.353076 0.341194 0.347954 0.354311 0.327353 0.327809 0.328794 0.353076 0.357564 0.362141 0.354311 0.360323 0.366173 0.341194 0.347954 0.354311 0.320631 0.328612 0.335898 0.28389 0.292782 0.300908 0.354311 0.360323 0.366173 0.335898 0.342319 0.347869 0.300908 0.307906 0.313699 0.24411 0.254256 0.264408 0.193027 0.202495 0.212172 0.133128 0.140599 0.148409 0.264408 0.274325 0.28389 0.212172 0.221872 0.231489 0.148409 0.156466 0.164724 0.133128 0.140599 0.148409 0.0677818 0.0720041 0.0765059 0 0 0 0.148409 0.156466 0.164724 0.0765059 0.0812489 0.0862825 0 0 0 0.28389 0.292782 0.300908 0.231489 0.240695 0.249364 0.164724 0.172937 0.180994 0.300908 0.307906 0.313699 0.249364 0.257093 0.263759 0.180994 0.18855 0.195432 0.164724 0.172937 0.180994 0.0862825 0.0914414 0.0967191 0 0 0 0.180994 0.18855 0.195432 0.0967191 0.101889 0.106894 0 0 0 0.052545 0.0414717 0.0309728 0.0634689 0.0521895 0.0414096 0.0905575 0.0791909 0.0681536 0.0309728 0.0209056 0.0113511 0.0414096 0.0309704 0.0209556 0.0681536 0.0572222 0.0464698 0.0905575 0.0791909 0.0681536 0.129986 0.119007 0.108095 0.176678 0.166836 0.156823 0.0681536 0.0572222 0.0464698 0.108095 0.0969691 0.085679 0.156823 0.14628 0.135244 0.0113511 0.00253578 -0.00498475 0.0209556 0.0115922 0.00339473 0.0464698 0.0360706 0.0264355 -0.00498475 -0.0110657 -0.0149537 0.00339473 -0.00350027 -0.00841003 0.0264355 0.0175998 0.0100213 0.0464698 0.0360706 0.0264355 0.085679 0.0743111 0.0631161 0.135244 0.123697 0.111757 0.0264355 0.0175998 0.0100213 0.0631161 0.0519994 0.0411112 0.111757 0.0992111 0.086015 0.176678 0.166836 0.156823 0.224265 0.216584 0.208538 0.267197 0.262546 0.257469 0.156823 0.14628 0.135244 0.208538 0.199773 0.190316 0.257469 0.251644 0.245116 0.267197 0.262546 0.257469 0.299673 0.298587 0.29708 0.318583 0.321166 0.323354 0.257469 0.251644 0.245116 0.29708 0.294924 0.292174 0.323354 0.324999 0.326162 0.135244 0.123697 0.111757 0.190316 0.180082 0.169106 0.245116 0.237799 0.229741 0.111757 0.0992111 0.086015 0.169106 0.157227 0.14432 0.229741 0.220897 0.211542 0.245116 0.237799 0.229741 0.292174 0.28882 0.284959 0.326162 0.326899 0.327353 0.229741 0.220897 0.211542 0.284959 0.280727 0.276177 0.327353 0.327809 0.328794 0.323814 0.324957 0.325874 0.299548 0.297388 0.294965 0.262681 0.257299 0.251644 0.325874 0.326434 0.326703 0.294965 0.292056 0.288727 0.251644 0.2454 0.238617 0.262681 0.257299 0.251644 0.216648 0.208577 0.20029 0.167521 0.157584 0.147617 0.251644 0.2454 0.238617 0.20029 0.191443 0.182062 0.147617 0.13727 0.126574 0.326703 0.326743 0.326704 0.288727 0.284972 0.280897 0.238617 0.231216 0.223244 0.326704 0.326878 0.327828 0.280897 0.276631 0.272221 0.223244 0.214638 0.205662 0.238617 0.231216 0.223244 0.182062 0.172068 0.161493 0.126574 0.115517 0.104213 0.223244 0.214638 0.205662 0.161493 0.150162 0.137935 0.104213 0.0924397 0.0801388 0.167521 0.157584 0.147617 0.121025 0.110153 0.0994629 0.0834164 0.0722292 0.0614524 0.147617 0.13727 0.126574 0.0994629 0.0886859 0.0778636 0.0614524 0.0508718 0.0405534 0.0834164 0.0722292 0.0614524 0.0595206 0.048366 0.0377524 0.052545 0.0414717 0.0309728 0.0614524 0.0508718 0.0405534 0.0377524 0.0275257 0.0177655 0.0309728 0.0209056 0.0113511 0.126574 0.115517 0.104213 0.0778636 0.0670824 0.0565941 0.0405534 0.0306688 0.0216301 0.104213 0.0924397 0.0801388 0.0565941 0.0462956 0.0363315 0.0216301 0.0134675 0.00663755 0.0405534 0.0306688 0.0216301 0.0177655 0.00869665 0.000834516 0.0113511 0.00253578 -0.00498475 0.0216301 0.0134675 0.00663755 0.000834516 -0.00568716 -0.0101833 -0.00498475 -0.0110657 -0.0149537 0 0 0 0.0758147 0.0799626 0.084295 0.147253 0.154289 0.161496 0 0 0 0.084295 0.0887846 0.0934651 0.161496 0.168788 0.176108 0.147253 0.154289 0.161496 0.210812 0.21931 0.22781 0.263099 0.271803 0.280339 0.161496 0.168788 0.176108 0.22781 0.236142 0.244212 0.280339 0.288504 0.296213 0 0 0 0.0934651 0.0981745 0.102886 0.176108 0.183222 0.19002 0 0 0 0.102886 0.107399 0.111649 0.19002 0.196198 0.201603 0.176108 0.183222 0.19002 0.244212 0.251734 0.258608 0.296213 0.303203 0.309416 0.19002 0.196198 0.201603 0.258608 0.264506 0.269342 0.309416 0.314558 0.318579 0.263099 0.271803 0.280339 0.301864 0.309829 0.317572 0.325773 0.33237 0.338802 0.280339 0.288504 0.296213 0.317572 0.324926 0.331862 0.338802 0.344968 0.350911 0.325773 0.33237 0.338802 0.333563 0.338037 0.342397 0.323814 0.324957 0.325874 0.338802 0.344968 0.350911 0.342397 0.346572 0.350631 0.325874 0.326434 0.326703 0.296213 0.303203 0.309416 0.331862 0.338196 0.343928 0.350911 0.356547 0.361954 0.309416 0.314558 0.318579 0.343928 0.348912 0.353137 0.361954 0.367177 0.37237 0.350911 0.356547 0.361954 0.350631 0.354598 0.358584 0.326703 0.326743 0.326704 0.361954 0.367177 0.37237 0.358584 0.362724 0.367095 0.326704 0.326878 0.327828 0 0 0 0.111649 0.11324 0.114222 0.201603 0.202603 0.202589 0 0 0 0.114222 0.114457 0.113823 0.202589 0.201371 0.19886 0.201603 0.202603 0.202589 0.269342 0.269143 0.267763 0.318579 0.317734 0.315717 0.202589 0.201371 0.19886 0.267763 0.265013 0.260828 0.315717 0.312247 0.307274 0 0 0 0.113823 0.112288 0.109711 0.19886 0.194997 0.189715 0 0 0 0.109711 0.106246 0.101768 0.189715 0.183174 0.175384 0.19886 0.194997 0.189715 0.260828 0.255136 0.24789 0.307274 0.30064 0.29232 0.189715 0.183174 0.175384 0.24789 0.239262 0.229217 0.29232 0.282469 0.271123 0.318579 0.317734 0.315717 0.353137 0.353122 0.351963 0.37237 0.374866 0.376446 0.315717 0.312247 0.307274 0.351963 0.349219 0.344836 0.376446 0.376333 0.374385 0.37237 0.374866 0.376446 0.367095 0.373745 0.380242 0.327828 0.338035 0.350106 0.376446 0.376333 0.374385 0.380242 0.385708 0.389806 0.350106 0.363028 0.37659 0.307274 0.30064 0.29232 0.344836 0.338409 0.329927 0.374385 0.369774 0.362444 0.29232 0.282469 0.271123 0.329927 0.319498 0.307124 0.362444 0.352362 0.339622 0.374385 0.369774 0.362444 0.389806 0.390771 0.388339 0.37659 0.388202 0.39664 0.362444 0.352362 0.339622 0.388339 0.381183 0.369606 0.39664 0.398199 0.392321 0.269725 0.260708 0.254633 0.26986 0.264604 0.26142 0.26591 0.264994 0.265325 0.254633 0.249395 0.245759 0.26142 0.25867 0.257137 0.265325 0.265407 0.266158 0.26591 0.264994 0.265325 0.257887 0.262088 0.266563 0.246714 0.257053 0.265822 0.265325 0.265407 0.266158 0.266563 0.269845 0.272963 0.265822 0.272423 0.277826 0.245759 0.242463 0.239816 0.257137 0.255516 0.254153 0.266158 0.26632 0.266278 0.239816 0.237472 0.235574 0.254153 0.252746 0.251413 0.266278 0.265801 0.265021 0.266158 0.26632 0.266278 0.272963 0.274983 0.27625 0.277826 0.281627 0.284116 0.266278 0.265801 0.265021 0.27625 0.276694 0.276398 0.284116 0.285403 0.285544 0.246714 0.257053 0.265822 0.234837 0.251148 0.263985 0.224434 0.24579 0.261888 0.265822 0.272423 0.277826 0.263985 0.273698 0.281082 0.261888 0.274091 0.282985 0.224434 0.24579 0.261888 0.218436 0.242808 0.260667 0.217878 0.242325 0.260415 0.261888 0.274091 0.282985 0.260667 0.274252 0.28395 0.260415 0.274187 0.283951 0.277826 0.281627 0.284116 0.281082 0.286445 0.289968 0.282985 0.289551 0.293855 0.284116 0.285403 0.285544 0.289968 0.291967 0.29246 0.293855 0.296401 0.297145 0.282985 0.289551 0.293855 0.28395 0.291155 0.295879 0.283951 0.291254 0.296033 0.293855 0.296401 0.297145 0.295879 0.298705 0.299598 0.296033 0.298921 0.299822 0 0 0 0.101768 0.0984959 0.0943092 0.175384 0.169317 0.162142 0 0 0 0.0943092 0.0895879 0.0843791 0.162142 0.154319 0.145997 0.175384 0.169317 0.162142 0.229217 0.221277 0.212186 0.271123 0.261964 0.251591 0.162142 0.154319 0.145997 0.212186 0.202514 0.192381 0.251591 0.240674 0.229332 0 0 0 0.0843791 0.0790329 0.0736779 0.145997 0.137624 0.129384 0 0 0 0.0736779 0.0685252 0.0637252 0.129384 0.12157 0.114345 0.145997 0.137624 0.129384 0.192381 0.182372 0.172645 0.229332 0.218303 0.207716 0.129384 0.12157 0.114345 0.172645 0.163556 0.155263 0.207716 0.197986 0.189253 0.271123 0.261964 0.251591 0.307124 0.297105 0.28565 0.339622 0.328908 0.316121 0.251591 0.240674 0.229332 0.28565 0.273564 0.260981 0.316121 0.30245 0.288086 0.339622 0.328908 0.316121 0.369606 0.358458 0.344116 0.392321 0.382324 0.366775 0.316121 0.30245 0.288086 0.344116 0.32825 0.311092 0.366775 0.348183 0.32727 0.229332 0.218303 0.207716 0.260981 0.248932 0.237509 0.288086 0.274574 0.261966 0.207716 0.197986 0.189253 0.237509 0.227219 0.218105 0.261966 0.251009 0.241636 0.288086 0.274574 0.261966 0.311092 0.295369 0.280856 0.32727 0.308633 0.291984 0.261966 0.251009 0.241636 0.280856 0.268851 0.259165 0.291984 0.279325 0.269725 0 0 0 0.0637252 0.0581556 0.0533142 0.114345 0.105758 0.0982218 0 0 0 0.0533142 0.0491369 0.0457147 0.0982218 0.0917225 0.0863461 0.114345 0.105758 0.0982218 0.155263 0.145117 0.136248 0.189253 0.178381 0.168951 0.0982218 0.0917225 0.0863461 0.136248 0.128592 0.122256 0.168951 0.160839 0.154153 0 0 0 0.0457147 0.0429559 0.0409543 0.0863461 0.081999 0.0787202 0 0 0 0.0409543 0.0395799 0.0388943 0.0787202 0.0764106 0.0750892 0.0863461 0.081999 0.0787202 0.122256 0.117083 0.113126 0.154153 0.148661 0.144421 0.0787202 0.0764106 0.0750892 0.113126 0.110278 0.108585 0.144421 0.141307 0.139381 0.189253 0.178381 0.168951 0.218105 0.206803 0.197238 0.241636 0.230413 0.221199 0.168951 0.160839 0.154153 0.197238 0.189062 0.182435 0.221199 0.213401 0.207233 0.241636 0.230413 0.221199 0.259165 0.248531 0.240387 0.269725 0.260708 0.254633 0.221199 0.213401 0.207233 0.240387 0.233503 0.228325 0.254633 0.249395 0.245759 0.154153 0.148661 0.144421 0.182435 0.176956 0.172717 0.207233 0.202084 0.198092 0.144421 0.141307 0.139381 0.172717 0.169538 0.167478 0.198092 0.194992 0.192876 0.207233 0.202084 0.198092 0.228325 0.223895 0.22044 0.245759 0.242463 0.239816 0.198092 0.194992 0.192876 0.22044 0.217635 0.215575 0.239816 0.237472 0.235574 0.265575 0.270818 0.276532 0.252388 0.258495 0.265371 0.230913 0.237166 0.244416 0.276532 0.282827 0.289496 0.265371 0.273154 0.281712 0.244416 0.252828 0.262359 0.230913 0.237166 0.244416 0.202268 0.208012 0.214876 0.167889 0.172606 0.178443 0.244416 0.252828 0.262359 0.214876 0.223045 0.23257 0.178443 0.185579 0.194153 0.289496 0.296501 0.303572 0.281712 0.291027 0.30087 0.262359 0.273041 0.284699 0.303572 0.311055 0.318583 0.30087 0.311325 0.322053 0.284699 0.297182 0.310156 0.262359 0.273041 0.284699 0.23257 0.243566 0.255945 0.194153 0.204365 0.216265 0.284699 0.297182 0.310156 0.255945 0.26943 0.283765 0.216265 0.229556 0.24411 0.167889 0.172606 0.178443 0.129332 0.132728 0.13711 0.0879138 0.0899353 0.0926956 0.178443 0.185579 0.194153 0.13711 0.14263 0.149472 0.0926956 0.0962943 0.100906 0.0879138 0.0899353 0.0926956 0.0446247 0.0454497 0.0466891 0 0 0 0.0926956 0.0962943 0.100906 0.0466891 0.0483659 0.0506058 0 0 0 0.194153 0.204365 0.216265 0.149472 0.157891 0.168069 0.100906 0.106768 0.114164 0.216265 0.229556 0.24411 0.168069 0.179751 0.193027 0.114164 0.122864 0.133128 0.100906 0.106768 0.114164 0.0506058 0.0535214 0.0574262 0 0 0 0.114164 0.122864 0.133128 0.0574262 0.0620746 0.0677818 0 0 0 0.233664 0.235522 0.237726 0.218173 0.220154 0.222469 0.198445 0.200319 0.202469 0.237726 0.240501 0.243837 0.222469 0.225355 0.228807 0.202469 0.205128 0.208288 0.198445 0.200319 0.202469 0.174572 0.176182 0.177986 0.146737 0.148004 0.149371 0.202469 0.205128 0.208288 0.177986 0.180192 0.182786 0.149371 0.151021 0.15292 0.243837 0.24789 0.252698 0.228807 0.233047 0.238139 0.208288 0.21221 0.216968 0.252698 0.258633 0.265575 0.238139 0.244598 0.252388 0.216968 0.223191 0.230913 0.208288 0.21221 0.216968 0.182786 0.186033 0.190005 0.15292 0.155312 0.158241 0.216968 0.223191 0.230913 0.190005 0.195386 0.202268 0.158241 0.162394 0.167889 0.146737 0.148004 0.149371 0.115154 0.116061 0.116988 0.0800384 0.0806088 0.0811427 0.149371 0.151021 0.15292 0.116988 0.118084 0.119296 0.0811427 0.0817626 0.0823926 0.0800384 0.0806088 0.0811427 0.0415916 0.0418653 0.0420828 0 0 0 0.0811427 0.0817626 0.0823926 0.0420828 0.0423412 0.0425528 0 0 0 0.15292 0.155312 0.158241 0.119296 0.120829 0.122677 0.0823926 0.0831996 0.0841102 0.158241 0.162394 0.167889 0.122677 0.125473 0.129332 0.0841102 0.0856531 0.0879138 0.0823926 0.0831996 0.0841102 0.0425528 0.0428501 0.0431116 0 0 0 0.0841102 0.0856531 0.0879138 0.0431116 0.0436875 0.0446247 0 0 0 0.256531 0.251923 0.246625 0.256194 0.251907 0.246994 0.256781 0.253228 0.249181 0.246625 0.240413 0.233197 0.246994 0.241258 0.234611 0.249181 0.244494 0.239083 0.256781 0.253228 0.249181 0.25764 0.255114 0.25227 0.257857 0.256494 0.255008 0.249181 0.244494 0.239083 0.25227 0.249031 0.245321 0.255008 0.253397 0.251599 0.233197 0.224509 0.214231 0.234611 0.226607 0.21713 0.239083 0.232556 0.224805 0.214231 0.201859 0.186999 0.21713 0.205691 0.191894 0.224805 0.215389 0.20392 0.239083 0.232556 0.224805 0.245321 0.240823 0.235446 0.251599 0.249384 0.246684 0.224805 0.215389 0.20392 0.235446 0.228825 0.220591 0.246684 0.243243 0.238716 0.257857 0.256494 0.255008 0.25642 0.256191 0.256022 0.252387 0.253127 0.254075 0.255008 0.253397 0.251599 0.256022 0.255985 0.256032 0.254075 0.255371 0.256979 0.252387 0.253127 0.254075 0.244975 0.246423 0.248176 0.233664 0.235522 0.237726 0.254075 0.255371 0.256979 0.248176 0.250427 0.253152 0.237726 0.240501 0.243837 0.251599 0.249384 0.246684 0.256032 0.256032 0.255939 0.256979 0.258873 0.261033 0.246684 0.243243 0.238716 0.255939 0.255633 0.254805 0.261033 0.263493 0.265998 0.256979 0.258873 0.261033 0.253152 0.256424 0.260251 0.243837 0.24789 0.252698 0.261033 0.263493 0.265998 0.260251 0.264837 0.269987 0.252698 0.258633 0.265575 0.186999 0.175418 0.162271 0.191894 0.181079 0.168744 0.20392 0.194815 0.184319 0.162271 0.147751 0.131415 0.168744 0.15506 0.139576 0.184319 0.172576 0.159125 0.20392 0.194815 0.184319 0.220591 0.213883 0.205994 0.238716 0.234794 0.229965 0.184319 0.172576 0.159125 0.205994 0.197034 0.186549 0.229965 0.224317 0.217417 0.131415 0.113607 0.0937888 0.139576 0.122589 0.103544 0.159125 0.144177 0.127157 0.0937888 0.073453 0.052545 0.103544 0.0838821 0.0634689 0.127157 0.109388 0.0905575 0.159125 0.144177 0.127157 0.186549 0.174648 0.160753 0.217417 0.209291 0.19939 0.127157 0.109388 0.0905575 0.160753 0.146035 0.129986 0.19939 0.188723 0.176678 0.238716 0.234794 0.229965 0.254805 0.253711 0.252033 0.265998 0.26752 0.26881 0.229965 0.224317 0.217417 0.252033 0.249846 0.246761 0.26881 0.269948 0.2706 0.265998 0.26752 0.26881 0.269987 0.273669 0.277476 0.265575 0.270818 0.276532 0.26881 0.269948 0.2706 0.277476 0.281503 0.285474 0.276532 0.282827 0.289496 0.217417 0.209291 0.19939 0.246761 0.24275 0.237338 0.2706 0.27072 0.269913 0.19939 0.188723 0.176678 0.237338 0.231395 0.224265 0.269913 0.268917 0.267197 0.2706 0.27072 0.269913 0.285474 0.289345 0.292795 0.289496 0.296501 0.303572 0