# vtk DataFile Version 3.0
#This file was generated by the deal.II library on 2024/9/17 at 11:46:25
ASCII
DATASET UNSTRUCTURED_GRID

POINTS 5760 double
0.11 0.11 0
0.09625 0.10875 0
0.0825 0.1075 0
0.10875 0.09625 0
0.0951562 0.0951563 0
0.0815625 0.0940625 0
0.1075 0.0825 0
0.0940625 0.0815625 0
0.080625 0.080625 0
0.0825 0.1075 0
0.06875 0.10625 0
0.055 0.105 0
0.0815625 0.0940625 0
0.0679688 0.0929688 0
0.054375 0.091875 0
0.080625 0.080625 0
0.0671875 0.0796875 0
0.05375 0.07875 0
0.1075 0.0825 0
0.0940625 0.0815625 0
0.080625 0.080625 0
0.10625 0.06875 0
0.0929688 0.0679688 0
0.0796875 0.0671875 0
0.105 0.055 0
0.091875 0.054375 0
0.07875 0.05375 0
0.080625 0.080625 0
0.0671875 0.0796875 0
0.05375 0.07875 0
0.0796875 0.0671875 0
0.0664063 0.0664062 0
0.053125 0.065625 0
0.07875 0.05375 0
0.065625 0.053125 0
0.0525 0.0525 0
0.055 0.105 0
0.04125 0.10375 0
0.0275 0.1025 0
0.054375 0.091875 0
0.0407813 0.0907813 0
0.0271875 0.0896875 0
0.05375 0.07875 0
0.0403125 0.0778125 0
0.026875 0.076875 0
0.0275 0.1025 0
0.01375 0.10125 0
0 0.1 0
0.0271875 0.0896875 0
0.0135938 0.0885938 0
0 0.0875 0
0.026875 0.076875 0
0.0134375 0.0759375 0
0 0.075 0
0.05375 0.07875 0
0.0403125 0.0778125 0
0.026875 0.076875 0
0.053125 0.065625 0
0.0398438 0.0648438 0
0.0265625 0.0640625 0
0.0525 0.0525 0
0.039375 0.051875 0
0.02625 0.05125 0
0.026875 0.076875 0
0.0134375 0.0759375 0
0 0.075 0
0.0265625 0.0640625 0
0.0132813 0.0632813 0
0 0.0625 0
0.02625 0.05125 0
0.013125 0.050625 0
0 0.05 0
0.105 0.055 0
0.091875 0.054375 0
0.07875 0.05375 0
0.10375 0.04125 0
0.0907813 0.0407813 0
0.0778125 0.0403125 0
0.1025 0.0275 0
0.0896875 0.0271875 0
0.076875 0.026875 0
0.07875 0.05375 0
0.065625 0.053125 0
0.0525 0.0525 0
0.0778125 0.0403125 0
0.0648438 0.0398438 0
0.051875 0.039375 0
0.076875 0.026875 0
0.0640625 0.0265625 0
0.05125 0.02625 0
0.1025 0.0275 0
0.0896875 0.0271875 0
0.076875 0.026875 0
0.10125 0.01375 0
0.0885937 0.0135938 0
0.0759375 0.0134375 0
0.1 0 0
0.0875 0 0
0.075 0 0
0.076875 0.026875 0
0.0640625 0.0265625 0
0.05125 0.02625 0
0.0759375 0.0134375 0
0.0632812 0.0132813 0
0.050625 0.013125 0
0.075 0 0
0.0625 0 0
0.05 0 0
0.0525 0.0525 0
0.039375 0.051875 0
0.02625 0.05125 0
0.051875 0.039375 0
0.0389063 0.0389063 0
0.0259375 0.0384375 0
0.05125 0.02625 0
0.0384375 0.0259375 0
0.025625 0.025625 0
0.02625 0.05125 0
0.013125 0.050625 0
0 0.05 0
0.0259375 0.0384375 0
0.0129688 0.0379688 0
0 0.0375 0
0.025625 0.025625 0
0.0128125 0.0253125 0
0 0.025 0
0.05125 0.02625 0
0.0384375 0.0259375 0
0.025625 0.025625 0
0.050625 0.013125 0
0.0379688 0.0129688 0
0.0253125 0.0128125 0
0.05 0 0
0.0375 0 0
0.025 0 0
0.025625 0.025625 0
0.0128125 0.0253125 0
0 0.025 0
0.0253125 0.0128125 0
0.0126563 0.0126563 0
0 0.0125 0
0.025 0 0
0.0125 0 0
0 0 0
0.2 0.1 0
0.18875 0.10125 0
0.1775 0.1025 0
0.2 0.0875 0
0.188594 0.0885938 0
0.177187 0.0896875 0
0.2 0.075 0
0.188438 0.0759375 0
0.176875 0.076875 0
0.1775 0.1025 0
0.16625 0.10375 0
0.155 0.105 0
0.177187 0.0896875 0
0.165781 0.0907813 0
0.154375 0.091875 0
0.176875 0.076875 0
0.165313 0.0778125 0
0.15375 0.07875 0
0.2 0.075 0
0.188438 0.0759375 0
0.176875 0.076875 0
0.2 0.0625 0
0.188281 0.0632813 0
0.176563 0.0640625 0
0.2 0.05 0
0.188125 0.050625 0
0.17625 0.05125 0
0.176875 0.076875 0
0.165313 0.0778125 0
0.15375 0.07875 0
0.176563 0.0640625 0
0.164844 0.0648438 0
0.153125 0.065625 0
0.17625 0.05125 0
0.164375 0.051875 0
0.1525 0.0525 0
0.155 0.105 0
0.14375 0.10625 0
0.1325 0.1075 0
0.154375 0.091875 0
0.142969 0.0929688 0
0.131562 0.0940625 0
0.15375 0.07875 0
0.142187 0.0796875 0
0.130625 0.080625 0
0.1325 0.1075 0
0.12125 0.10875 0
0.11 0.11 0
0.131562 0.0940625 0
0.120156 0.0951563 0
0.10875 0.09625 0
0.130625 0.080625 0
0.119063 0.0815625 0
0.1075 0.0825 0
0.15375 0.07875 0
0.142187 0.0796875 0
0.130625 0.080625 0
0.153125 0.065625 0
0.141406 0.0664062 0
0.129688 0.0671875 0
0.1525 0.0525 0
0.140625 0.053125 0
0.12875 0.05375 0
0.130625 0.080625 0
0.119063 0.0815625 0
0.1075 0.0825 0
0.129688 0.0671875 0
0.117969 0.0679688 0
0.10625 0.06875 0
0.12875 0.05375 0
0.116875 0.054375 0
0.105 0.055 0
0.2 0.05 0
0.188125 0.050625 0
0.17625 0.05125 0
0.2 0.0375 0
0.187969 0.0379688 0
0.175938 0.0384375 0
0.2 0.025 0
0.187813 0.0253125 0
0.175625 0.025625 0
0.17625 0.05125 0
0.164375 0.051875 0
0.1525 0.0525 0
0.175938 0.0384375 0
0.163906 0.0389063 0
0.151875 0.039375 0
0.175625 0.025625 0
0.163438 0.0259375 0
0.15125 0.02625 0
0.2 0.025 0
0.187813 0.0253125 0
0.175625 0.025625 0
0.2 0.0125 0
0.187656 0.0126563 0
0.175313 0.0128125 0
0.2 0 0
0.1875 0 0
0.175 0 0
0.175625 0.025625 0
0.163438 0.0259375 0
0.15125 0.02625 0
0.175313 0.0128125 0
0.162969 0.0129688 0
0.150625 0.013125 0
0.175 0 0
0.1625 0 0
0.15 0 0
0.1525 0.0525 0
0.140625 0.053125 0
0.12875 0.05375 0
0.151875 0.039375 0
0.139844 0.0398438 0
0.127813 0.0403125 0
0.15125 0.02625 0
0.139063 0.0265625 0
0.126875 0.026875 0
0.12875 0.05375 0
0.116875 0.054375 0
0.105 0.055 0
0.127813 0.0403125 0
0.115781 0.0407813 0
0.10375 0.04125 0
0.126875 0.026875 0
0.114688 0.0271875 0
0.1025 0.0275 0
0.15125 0.02625 0
0.139063 0.0265625 0
0.126875 0.026875 0
0.150625 0.013125 0
0.138281 0.0132813 0
0.125938 0.0134375 0
0.15 0 0
0.1375 0 0
0.125 0 0
0.126875 0.026875 0
0.114688 0.0271875 0
0.1025 0.0275 0
0.125938 0.0134375 0
0.113594 0.0135938 0
0.10125 0.01375 0
0.125 0 0
0.1125 0 0
0.1 0 0
0.1 0.2 0
0.0875 0.2 0
0.075 0.2 0
0.10125 0.18875 0
0.0885937 0.188594 0
0.0759375 0.188438 0
0.1025 0.1775 0
0.0896875 0.177187 0
0.076875 0.176875 0
0.075 0.2 0
0.0625 0.2 0
0.05 0.2 0
0.0759375 0.188438 0
0.0632813 0.188281 0
0.050625 0.188125 0
0.076875 0.176875 0
0.0640625 0.176563 0
0.05125 0.17625 0
0.1025 0.1775 0
0.0896875 0.177187 0
0.076875 0.176875 0
0.10375 0.16625 0
0.0907813 0.165781 0
0.0778125 0.165313 0
0.105 0.155 0
0.091875 0.154375 0
0.07875 0.15375 0
0.076875 0.176875 0
0.0640625 0.176563 0
0.05125 0.17625 0
0.0778125 0.165313 0
0.0648438 0.164844 0
0.051875 0.164375 0
0.07875 0.15375 0
0.065625 0.153125 0
0.0525 0.1525 0
0.05 0.2 0
0.0375 0.2 0
0.025 0.2 0
0.050625 0.188125 0
0.0379688 0.187969 0
0.0253125 0.187813 0
0.05125 0.17625 0
0.0384375 0.175938 0
0.025625 0.175625 0
0.025 0.2 0
0.0125 0.2 0
0 0.2 0
0.0253125 0.187813 0
0.0126563 0.187656 0
0 0.1875 0
0.025625 0.175625 0
0.0128125 0.175313 0
0 0.175 0
0.05125 0.17625 0
0.0384375 0.175938 0
0.025625 0.175625 0
0.051875 0.164375 0
0.0389063 0.163906 0
0.0259375 0.163438 0
0.0525 0.1525 0
0.039375 0.151875 0
0.02625 0.15125 0
0.025625 0.175625 0
0.0128125 0.175313 0
0 0.175 0
0.0259375 0.163438 0
0.0129688 0.162969 0
0 0.1625 0
0.02625 0.15125 0
0.013125 0.150625 0
0 0.15 0
0.105 0.155 0
0.091875 0.154375 0
0.07875 0.15375 0
0.10625 0.14375 0
0.0929688 0.142969 0
0.0796875 0.142187 0
0.1075 0.1325 0
0.0940625 0.131562 0
0.080625 0.130625 0
0.07875 0.15375 0
0.065625 0.153125 0
0.0525 0.1525 0
0.0796875 0.142187 0
0.0664063 0.141406 0
0.053125 0.140625 0
0.080625 0.130625 0
0.0671875 0.129688 0
0.05375 0.12875 0
0.1075 0.1325 0
0.0940625 0.131562 0
0.080625 0.130625 0
0.10875 0.12125 0
0.0951563 0.120156 0
0.0815625 0.119063 0
0.11 0.11 0
0.09625 0.10875 0
0.0825 0.1075 0
0.080625 0.130625 0
0.0671875 0.129688 0
0.05375 0.12875 0
0.0815625 0.119063 0
0.0679688 0.117969 0
0.054375 0.116875 0
0.0825 0.1075 0
0.06875 0.10625 0
0.055 0.105 0
0.0525 0.1525 0
0.039375 0.151875 0
0.02625 0.15125 0
0.053125 0.140625 0
0.0398438 0.139844 0
0.0265625 0.139063 0
0.05375 0.12875 0
0.0403125 0.127813 0
0.026875 0.126875 0
0.02625 0.15125 0
0.013125 0.150625 0
0 0.15 0
0.0265625 0.139063 0
0.0132813 0.138281 0
0 0.1375 0
0.026875 0.126875 0
0.0134375 0.125938 0
0 0.125 0
0.05375 0.12875 0
0.0403125 0.127813 0
0.026875 0.126875 0
0.054375 0.116875 0
0.0407813 0.115781 0
0.0271875 0.114688 0
0.055 0.105 0
0.04125 0.10375 0
0.0275 0.1025 0
0.026875 0.126875 0
0.0134375 0.125938 0
0 0.125 0
0.0271875 0.114688 0
0.0135938 0.113594 0
0 0.1125 0
0.0275 0.1025 0
0.01375 0.10125 0
0 0.1 0
0.29 0.11 0
0.27875 0.10875 0
0.2675 0.1075 0
0.29125 0.09625 0
0.279844 0.0951563 0
0.268437 0.0940625 0
0.2925 0.0825 0
0.280938 0.0815625 0
0.269375 0.080625 0
0.2675 0.1075 0
0.25625 0.10625 0
0.245 0.105 0
0.268437 0.0940625 0
0.257031 0.0929688 0
0.245625 0.091875 0
0.269375 0.080625 0
0.257812 0.0796875 0
0.24625 0.07875 0
0.2925 0.0825 0
0.280938 0.0815625 0
0.269375 0.080625 0
0.29375 0.06875 0
0.282031 0.0679688 0
0.270313 0.0671875 0
0.295 0.055 0
0.283125 0.054375 0
0.27125 0.05375 0
0.269375 0.080625 0
0.257812 0.0796875 0
0.24625 0.07875 0
0.270313 0.0671875 0
0.258594 0.0664062 0
0.246875 0.065625 0
0.27125 0.05375 0
0.259375 0.053125 0
0.2475 0.0525 0
0.245 0.105 0
0.23375 0.10375 0
0.2225 0.1025 0
0.245625 0.091875 0
0.234219 0.0907813 0
0.222813 0.0896875 0
0.24625 0.07875 0
0.234687 0.0778125 0
0.223125 0.076875 0
0.2225 0.1025 0
0.21125 0.10125 0
0.2 0.1 0
0.222813 0.0896875 0
0.211406 0.0885937 0
0.2 0.0875 0
0.223125 0.076875 0
0.211563 0.0759375 0
0.2 0.075 0
0.24625 0.07875 0
0.234687 0.0778125 0
0.223125 0.076875 0
0.246875 0.065625 0
0.235156 0.0648438 0
0.223438 0.0640625 0
0.2475 0.0525 0
0.235625 0.051875 0
0.22375 0.05125 0
0.223125 0.076875 0
0.211563 0.0759375 0
0.2 0.075 0
0.223438 0.0640625 0
0.211719 0.0632813 0
0.2 0.0625 0
0.22375 0.05125 0
0.211875 0.050625 0
0.2 0.05 0
0.295 0.055 0
0.283125 0.054375 0
0.27125 0.05375 0
0.29625 0.04125 0
0.284219 0.0407813 0
0.272188 0.0403125 0
0.2975 0.0275 0
0.285312 0.0271875 0
0.273125 0.026875 0
0.27125 0.05375 0
0.259375 0.053125 0
0.2475 0.0525 0
0.272188 0.0403125 0
0.260156 0.0398438 0
0.248125 0.039375 0
0.273125 0.026875 0
0.260937 0.0265625 0
0.24875 0.02625 0
0.2975 0.0275 0
0.285312 0.0271875 0
0.273125 0.026875 0
0.29875 0.01375 0
0.286406 0.0135938 0
0.274062 0.0134375 0
0.3 0 0
0.2875 0 0
0.275 0 0
0.273125 0.026875 0
0.260937 0.0265625 0
0.24875 0.02625 0
0.274062 0.0134375 0
0.261719 0.0132813 0
0.249375 0.013125 0
0.275 0 0
0.2625 0 0
0.25 0 0
0.2475 0.0525 0
0.235625 0.051875 0
0.22375 0.05125 0
0.248125 0.039375 0
[...]
POINT_DATA 5760
SCALARS x_velo double 1
LOOKUP_TABLE default
0.259827 0.249939 0.24309 0.248518 0.237159 0.228401 0.231185 0.219243 0.209468 0.24309 0.237178 0.23294 0.228401 0.220977 0.21533 0.209468 0.201185 0.194626 0.231185 0.219243 0.209468 0.208578 0.196552 0.186421 0.181093 0.169499 0.159506 0.209468 0.201185 0.194626 0.186421 0.177774 0.170784 0.159506 0.150941 0.14392 0.23294 0.22915 0.226087 0.21533 0.210512 0.206729 0.194626 0.189154 0.184901 0.226087 0.223425 0.221297 0.206729 0.203676 0.201443 0.184901 0.181607 0.179358 0.194626 0.189154 0.184901 0.170784 0.165013 0.160551 0.14392 0.13817 0.133743 0.184901 0.181607 0.179358 0.160551 0.157206 0.155042 0.133743 0.130496 0.128495 0.181093 0.169499 0.159506 0.148638 0.13785 0.12849 0.109401 0.100341 0.0924606 0.159506 0.150941 0.14392 0.12849 0.120451 0.113847 0.0924606 0.0857089 0.0801703 0.109401 0.100341 0.0924606 0.0607997 0.0550061 0.0500249 0 0 0 0.0924606 0.0857089 0.0801703 0.0500249 0.0457562 0.0422949 0 0 0 0.14392 0.13817 0.133743 0.113847 0.108478 0.104393 0.0801703 0.0757149 0.0723811 0.133743 0.130496 0.128495 0.104393 0.101457 0.0997174 0.0723811 0.0700413 0.0687091 0.0801703 0.0757149 0.0723811 0.0422949 0.0395175 0.037519 0 0 0 0.0723811 0.0700413 0.0687091 0.037519 0.0361492 0.03547 0 0 0 0.386494 0.376162 0.36019 0.364526 0.352963 0.337934 0.335978 0.324685 0.311043 0.36019 0.341104 0.319624 0.337934 0.321254 0.303195 0.311043 0.296395 0.280951 0.335978 0.324685 0.311043 0.304715 0.294086 0.281747 0.269661 0.259978 0.248817 0.311043 0.296395 0.280951 0.281747 0.26866 0.254975 0.248817 0.236987 0.224628 0.319624 0.300358 0.283103 0.303195 0.286614 0.271343 0.280951 0.266432 0.252909 0.283103 0.269887 0.259827 0.271343 0.258701 0.248518 0.252909 0.241175 0.231185 0.280951 0.266432 0.252909 0.254975 0.241881 0.229491 0.224628 0.212611 0.201089 0.252909 0.241175 0.231185 0.229491 0.218369 0.208578 0.201089 0.190529 0.181093 0.269661 0.259978 0.248817 0.228098 0.21984 0.210161 0.174155 0.168004 0.160498 0.248817 0.236987 0.224628 0.210161 0.199761 0.188784 0.160498 0.152203 0.143289 0.174155 0.168004 0.160498 0.100551 0.0973339 0.0930291 0 0 0 0.160498 0.152203 0.143289 0.0930291 0.0881021 0.0825956 0 0 0 0.224628 0.212611 0.201089 0.188784 0.177929 0.167385 0.143289 0.134301 0.125457 0.201089 0.190529 0.181093 0.167385 0.15756 0.148638 0.125457 0.117093 0.109401 0.143289 0.134301 0.125457 0.0825956 0.0769327 0.0712638 0 0 0 0.125457 0.117093 0.109401 0.0712638 0.0658273 0.0607997 0 0 0 0.217873 0.242321 0.260412 0.217315 0.241528 0.259262 0.22219 0.243237 0.259084 0.260412 0.274185 0.283949 0.259262 0.272743 0.282358 0.259084 0.271077 0.279804 0.22219 0.243237 0.259084 0.231444 0.247298 0.259768 0.242119 0.251884 0.26018 0.259084 0.271077 0.279804 0.259768 0.269174 0.276307 0.26018 0.266384 0.271455 0.283949 0.291253 0.296033 0.282358 0.289495 0.294165 0.279804 0.286231 0.290426 0.296033 0.298921 0.299822 0.294165 0.296949 0.297814 0.290426 0.292889 0.293575 0.279804 0.286231 0.290426 0.276307 0.281465 0.284824 0.271455 0.274986 0.277257 0.290426 0.292889 0.293575 0.284824 0.286699 0.287106 0.277257 0.278379 0.278406 0.242119 0.251884 0.26018 0.252031 0.255562 0.259472 0.258743 0.257075 0.256764 0.26018 0.266384 0.271455 0.259472 0.262277 0.264987 0.256764 0.256297 0.25657 0.258743 0.257075 0.256764 0.261349 0.255266 0.251372 0.259827 0.249939 0.24309 0.256764 0.256297 0.25657 0.251372 0.248006 0.245932 0.24309 0.237178 0.23294 0.271455 0.274986 0.277257 0.264987 0.266678 0.267674 0.25657 0.256347 0.255983 0.277257 0.278379 0.278406 0.267674 0.267914 0.267475 0.255983 0.255263 0.254313 0.25657 0.256347 0.255983 0.245932 0.243871 0.24214 0.23294 0.22915 0.226087 0.255983 0.255263 0.254313 0.24214 0.240454 0.23892 0.226087 0.223425 0.221297 0.32859 0.338065 0.3493 0.362119 0.368672 0.375138 0.36631 0.369357 0.371546 0.3493 0.361299 0.373904 0.375138 0.380648 0.384883 0.371546 0.372055 0.37071 0.36631 0.369357 0.371546 0.348112 0.348994 0.348689 0.314011 0.314272 0.313256 0.371546 0.372055 0.37071 0.348689 0.346676 0.342879 0.313256 0.3106 0.30624 0.373904 0.384586 0.392174 0.384883 0.386002 0.383685 0.37071 0.366539 0.359434 0.392174 0.393022 0.386494 0.383685 0.376455 0.364526 0.359434 0.349215 0.335978 0.37071 0.366539 0.359434 0.342879 0.336786 0.328365 0.30624 0.299941 0.291667 0.359434 0.349215 0.335978 0.328365 0.317675 0.304715 0.291667 0.281563 0.269661 0.314011 0.314272 0.313256 0.264105 0.2651 0.26482 0.19576 0.197826 0.198838 0.313256 0.3106 0.30624 0.26482 0.262995 0.259538 0.198838 0.198534 0.196796 0.19576 0.197826 0.198838 0.107113 0.109325 0.110944 0 0 0 0.198838 0.198534 0.196796 0.110944 0.111777 0.111685 0 0 0 0.30624 0.299941 0.291667 0.259538 0.254312 0.247252 0.196796 0.193502 0.188557 0.291667 0.281563 0.269661 0.247252 0.23853 0.228098 0.188557 0.182111 0.174155 0.196796 0.193502 0.188557 0.111685 0.110592 0.108323 0 0 0 0.188557 0.182111 0.174155 0.108323 0.105031 0.100551 0 0 0 0.31885 0.321322 0.32341 0.322672 0.328467 0.33401 0.311047 0.319126 0.326985 0.32341 0.324974 0.326071 0.33401 0.339198 0.344085 0.326985 0.334474 0.341607 0.311047 0.319126 0.326985 0.284825 0.294328 0.303677 0.245221 0.255255 0.26529 0.326985 0.334474 0.341607 0.303677 0.312656 0.321202 0.26529 0.275094 0.284551 0.326071 0.326757 0.327177 0.344085 0.34869 0.35313 0.341607 0.348279 0.35456 0.327177 0.327612 0.32859 0.35313 0.357574 0.362119 0.35456 0.360511 0.36631 0.341607 0.348279 0.35456 0.321202 0.329084 0.336282 0.284551 0.293342 0.301375 0.35456 0.360511 0.36631 0.336282 0.342627 0.348112 0.301375 0.30829 0.314011 0.245221 0.255255 0.26529 0.194053 0.203438 0.213025 0.133925 0.141347 0.149101 0.26529 0.275094 0.284551 0.213025 0.222633 0.232158 0.149101 0.157099 0.165295 0.133925 0.141347 0.149101 0.0682203 0.0724239 0.0769022 0 0 0 0.149101 0.157099 0.165295 0.0769022 0.0816189 0.0866242 0 0 0 0.284551 0.293342 0.301375 0.232158 0.241276 0.24986 0.165295 0.173445 0.181439 0.301375 0.30829 0.314011 0.24986 0.25751 0.264105 0.181439 0.188935 0.19576 0.165295 0.173445 0.181439 0.0866242 0.0917534 0.097 0 0 0 0.181439 0.188935 0.19576 0.097 0.102138 0.107113 0 0 0 0.0515964 0.0407167 0.0303887 0.0624752 0.0513842 0.0407721 0.0894887 0.078292 0.0674094 0.0303887 0.0204745 0.0110533 0.0407721 0.0304852 0.0206047 0.0674094 0.0566225 0.0460016 0.0894887 0.078292 0.0674094 0.12888 0.118037 0.107253 0.175631 0.165878 0.155952 0.0674094 0.0566225 0.0460016 0.107253 0.0962527 0.0850819 0.155952 0.145503 0.134561 0.0110533 0.00235127 -0.00508054 0.0206047 0.0113571 0.00325235 0.0460016 0.03572 0.0261839 -0.00508054 -0.0110947 -0.0149384 0.00325235 -0.00357062 -0.00842973 0.0261839 0.0174307 0.00991727 0.0460016 0.03572 0.0261839 0.0850819 0.0738263 0.0627322 0.134561 0.12311 0.111262 0.0261839 0.0174307 0.00991727 0.0627322 0.0517066 0.0408984 0.111262 0.0988061 0.0856955 0.175631 0.165878 0.155952 0.223416 0.215767 0.207759 0.266665 0.26199 0.256897 0.155952 0.145503 0.134561 0.207759 0.199042 0.189642 0.256897 0.251072 0.244556 0.266665 0.26199 0.256897 0.299535 0.298376 0.296807 0.31885 0.321322 0.32341 0.256897 0.251072 0.244556 0.296807 0.294605 0.291825 0.32341 0.324974 0.326071 0.134561 0.12311 0.111262 0.189642 0.179473 0.168565 0.244556 0.237264 0.229241 0.111262 0.0988061 0.0856955 0.168565 0.15676 0.143929 0.229241 0.220442 0.211139 0.244556 0.237264 0.229241 0.291825 0.288455 0.284592 0.326071 0.326757 0.327177 0.229241 0.220442 0.211139 0.284592 0.280371 0.275843 0.327177 0.327612 0.32859 0.323939 0.324996 0.325835 0.299282 0.297072 0.294608 0.262047 0.256664 0.251013 0.325835 0.326331 0.326549 0.294608 0.291671 0.288326 0.251013 0.244785 0.238026 0.262047 0.256664 0.251013 0.215736 0.207718 0.199486 0.166456 0.156625 0.146757 0.251013 0.244785 0.238026 0.199486 0.190701 0.181386 0.146757 0.136512 0.125916 0.326549 0.326551 0.326487 0.288326 0.284567 0.280499 0.238026 0.23066 0.222729 0.326487 0.32665 0.327598 0.280499 0.276251 0.271867 0.222729 0.214172 0.20525 0.238026 0.23066 0.222729 0.181386 0.171462 0.160958 0.125916 0.114955 0.103742 0.222729 0.214172 0.20525 0.160958 0.149701 0.137549 0.103742 0.0920552 0.0798347 0.166456 0.156625 0.146757 0.119937 0.109212 0.0986579 0.0823811 0.0713707 0.0607521 0.146757 0.136512 0.125916 0.0986579 0.0880102 0.0773077 0.0607521 0.0503167 0.040128 0.0823811 0.0713707 0.0607521 0.0585516 0.0475883 0.0371438 0.0515964 0.0407167 0.0303887 0.0607521 0.0503167 0.040128 0.0371438 0.027069 0.0174415 0.0303887 0.0204745 0.0110533 0.125916 0.114955 0.103742 0.0773077 0.0666367 0.0562446 0.040128 0.0303573 0.0214124 0.103742 0.0920552 0.0798347 0.0562446 0.0460312 0.03614 0.0214124 0.0133261 0.00655429 0.040128 0.0303573 0.0214124 0.0174415 0.00848589 0.000713052 0.0110533 0.00235127 -0.00508054 0.0214124 0.0133261 0.00655429 0.000713052 -0.00574046 -0.0101901 -0.00508054 -0.0110947 -0.0149384 0 0 0 0.0762595 0.0803863 0.0846932 0.148044 0.155027 0.162176 0 0 0 0.0846932 0.0891552 0.0938065 0.162176 0.169407 0.176665 0.148044 0.155027 0.162176 0.211806 0.220217 0.228627 0.264149 0.272744 0.281169 0.162176 0.169407 0.176665 0.228627 0.236869 0.244852 0.281169 0.289229 0.296838 0 0 0 0.0938065 0.0984859 0.103167 0.176665 0.183717 0.190455 0 0 0 0.103167 0.107649 0.111869 0.190455 0.196576 0.201926 0.176665 0.183717 0.190455 0.244852 0.25229 0.259086 0.296838 0.303736 0.309865 0.190455 0.196576 0.201926 0.259086 0.264911 0.269681 0.309865 0.314932 0.318888 0.264149 0.272744 0.281169 0.302843 0.310689 0.318317 0.32657 0.333051 0.339372 0.281169 0.289229 0.296838 0.318317 0.325563 0.332402 0.339372 0.34544 0.351295 0.32657 0.333051 0.339372 0.33407 0.338438 0.3427 0.323939 0.324996 0.325835 0.339372 0.34544 0.351295 0.3427 0.34679 0.350775 0.325835 0.326331 0.326549 0.296838 0.303736 0.309865 0.332402 0.338647 0.344301 0.351295 0.356855 0.362195 0.309865 0.314932 0.318888 0.344301 0.349218 0.353385 0.362195 0.367363 0.37251 0.351295 0.356855 0.362195 0.350775 0.354682 0.358618 0.326549 0.326551 0.326487 0.362195 0.367363 0.37251 0.358618 0.362721 0.367064 0.326487 0.32665 0.327598 0 0 0 0.111869 0.113429 0.114382 0.201926 0.202877 0.202818 0 0 0 0.114382 0.114591 0.113934 0.202818 0.201561 0.199016 0.201926 0.202877 0.202818 0.269681 0.269428 0.268001 0.318888 0.317994 0.315934 0.202818 0.201561 0.199016 0.268001 0.26521 0.26099 0.315934 0.312427 0.307423 0 0 0 0.113934 0.11238 0.109786 0.199016 0.195125 0.189818 0 0 0 0.109786 0.106306 0.101816 0.189818 0.183257 0.17545 0.199016 0.195125 0.189818 0.26099 0.255268 0.247997 0.307423 0.300761 0.292419 0.189818 0.183257 0.17545 0.247997 0.239348 0.229286 0.292419 0.282549 0.271187 0.318888 0.317994 0.315934 0.353385 0.353332 0.35214 0.37251 0.374988 0.376551 0.315934 0.312427 0.307423 0.35214 0.349366 0.344958 0.376551 0.376424 0.374461 0.37251 0.374988 0.376551 0.367064 0.373723 0.380227 0.327598 0.337836 0.349939 0.376551 0.376424 0.374461 0.380227 0.3857 0.389804 0.349939 0.362891 0.376481 0.307423 0.300761 0.292419 0.344958 0.338509 0.330008 0.374461 0.369838 0.362497 0.292419 0.282549 0.271187 0.330008 0.319564 0.307178 0.362497 0.352405 0.339657 0.374461 0.369838 0.362497 0.389804 0.390774 0.388345 0.376481 0.388119 0.39658 0.362497 0.352405 0.339657 0.388345 0.381191 0.369614 0.39658 0.398157 0.392293 0.269722 0.260706 0.254632 0.269855 0.264601 0.261418 0.265904 0.26499 0.265323 0.254632 0.249394 0.245759 0.261418 0.258669 0.257136 0.265323 0.265405 0.266157 0.265904 0.26499 0.265323 0.25788 0.262083 0.26656 0.246708 0.257049 0.265819 0.265323 0.265405 0.266157 0.26656 0.269843 0.272962 0.265819 0.272421 0.277825 0.245759 0.242462 0.239816 0.257136 0.255515 0.254153 0.266157 0.26632 0.266278 0.239816 0.237472 0.235574 0.254153 0.252746 0.251413 0.266278 0.265801 0.265021 0.266157 0.26632 0.266278 0.272962 0.274982 0.27625 0.277825 0.281626 0.284115 0.266278 0.265801 0.265021 0.27625 0.276694 0.276398 0.284115 0.285403 0.285544 0.246708 0.257049 0.265819 0.234832 0.251144 0.263981 0.224429 0.245786 0.261885 0.265819 0.272421 0.277825 0.263981 0.273696 0.28108 0.261885 0.274089 0.282984 0.224429 0.245786 0.261885 0.218432 0.242804 0.260664 0.217873 0.242321 0.260412 0.261885 0.274089 0.282984 0.260664 0.27425 0.283948 0.260412 0.274185 0.283949 0.277825 0.281626 0.284115 0.28108 0.286444 0.289967 0.282984 0.28955 0.293854 0.284115 0.285403 0.285544 0.289967 0.291967 0.29246 0.293854 0.296401 0.297145 0.282984 0.28955 0.293854 0.283948 0.291154 0.295879 0.283949 0.291253 0.296033 0.293854 0.296401 0.297145 0.295879 0.298705 0.299598 0.296033 0.298921 0.299822 0 0 0 0.101816 0.0985344 0.0943402 0.17545 0.16937 0.162184 0 0 0 0.0943402 0.0896128 0.0843991 0.162184 0.154353 0.146024 0.17545 0.16937 0.162184 0.229286 0.221333 0.21223 0.271187 0.262016 0.251632 0.162184 0.154353 0.146024 0.21223 0.202549 0.192409 0.251632 0.240707 0.229358 0 0 0 0.0843991 0.0790489 0.0736907 0.146024 0.137646 0.129402 0 0 0 0.0736907 0.0685354 0.0637333 0.129402 0.121584 0.114356 0.146024 0.137646 0.129402 0.192409 0.182395 0.172663 0.229358 0.218324 0.207733 0.129402 0.121584 0.114356 0.172663 0.163571 0.155274 0.207733 0.197998 0.189262 0.271187 0.262016 0.251632 0.307178 0.297147 0.285683 0.339657 0.328934 0.316141 0.251632 0.240707 0.229358 0.285683 0.27359 0.261001 0.316141 0.302464 0.288097 0.339657 0.328934 0.316141 0.369614 0.358462 0.344117 0.392293 0.382301 0.366756 0.316141 0.302464 0.288097 0.344117 0.32825 0.311092 0.366756 0.348168 0.327259 0.229358 0.218324 0.207733 0.261001 0.248948 0.237521 0.288097 0.274582 0.261973 0.207733 0.197998 0.189262 0.237521 0.227228 0.218112 0.261973 0.251013 0.24164 0.288097 0.274582 0.261973 0.311092 0.295369 0.280856 0.327259 0.308624 0.291978 0.261973 0.251013 0.24164 0.280856 0.268851 0.259165 0.291978 0.27932 0.269722 0 0 0 0.0637333 0.0581616 0.0533186 0.114356 0.105767 0.0982279 0 0 0 0.0533186 0.0491399 0.0457165 0.0982279 0.0917266 0.0863487 0.114356 0.105767 0.0982279 0.155274 0.145125 0.136254 0.189262 0.178388 0.168956 0.0982279 0.0917266 0.0863487 0.136254 0.128596 0.122258 0.168956 0.160843 0.154156 0 0 0 0.0457165 0.0429568 0.0409547 0.0863487 0.0820004 0.0787209 0 0 0 0.0409547 0.0395799 0.0388943 0.0787209 0.0764107 0.0750892 0.0863487 0.0820004 0.0787209 0.122258 0.117085 0.113127 0.154156 0.148663 0.144421 0.0787209 0.0764107 0.0750892 0.113127 0.110278 0.108585 0.144421 0.141307 0.139381 0.189262 0.178388 0.168956 0.218112 0.206808 0.197242 0.24164 0.230416 0.221201 0.168956 0.160843 0.154156 0.197242 0.189064 0.182436 0.221201 0.213402 0.207234 0.24164 0.230416 0.221201 0.259165 0.248531 0.240387 0.269722 0.260706 0.254632 0.221201 0.213402 0.207234 0.240387 0.233503 0.228325 0.254632 0.249394 0.245759 0.154156 0.148663 0.144421 0.182436 0.176957 0.172718 0.207234 0.202085 0.198092 0.144421 0.141307 0.139381 0.172718 0.169538 0.167478 0.198092 0.194992 0.192876 0.207234 0.202085 0.198092 0.228325 0.223895 0.22044 0.245759 0.242462 0.239816 0.198092 0.194992 0.192876 0.22044 0.217635 0.215575 0.239816 0.237472 0.235574 0.267251 0.272366 0.277927 0.254468 0.260483 0.267234 0.233147 0.239356 0.246526 0.277927 0.284042 0.290517 0.267234 0.274851 0.283215 0.246526 0.254807 0.264168 0.233147 0.239356 0.246526 0.204412 0.210163 0.216996 0.169744 0.174508 0.180356 0.246526 0.254807 0.264168 0.216996 0.225082 0.23448 0.180356 0.187458 0.195955 0.290517 0.29732 0.304194 0.283215 0.292312 0.30193 0.264168 0.274644 0.286074 0.304194 0.311488 0.31885 0.30193 0.312158 0.322672 0.286074 0.298313 0.311047 0.264168 0.274644 0.286074 0.23448 0.245304 0.257479 0.195955 0.206045 0.217786 0.286074 0.298313 0.311047 0.257479 0.270732 0.284825 0.217786 0.230882 0.245221 0.169744 0.174508 0.180356 0.130765 0.134225 0.138645 0.0888629 0.0909428 0.0937455 0.180356 0.187458 0.195955 0.138645 0.144167 0.150977 0.0937455 0.0973626 0.10197 0.0888629 0.0909428 0.0937455 0.0450877 0.0459455 0.0472113 0 0 0 0.0937455 0.0973626 0.10197 0.0472113 0.0489028 0.0511474 0 0 0 0.195955 0.206045 0.217786 0.150977 0.159325 0.169399 0.10197 0.107801 0.115144 0.217786 0.230882 0.245221 0.169399 0.180941 0.194053 0.115144 0.123763 0.133925 0.10197 0.107801 0.115144 0.0511474 0.0540544 0.0579419 0 0 0 0.115144 0.123763 0.133925 0.0579419 0.0625574 0.0682203 0 0 0 0.234661 0.236769 0.239196 0.219005 0.221293 0.223892 0.19896 0.201169 0.20364 0.239196 0.242152 0.245621 0.223892 0.227026 0.230685 0.20364 0.206593 0.210017 0.19896 0.201169 0.20364 0.174721 0.176665 0.178795 0.146574 0.148142 0.14981 0.20364 0.206593 0.210017 0.178795 0.181311 0.184197 0.14981 0.151754 0.153938 0.245621 0.249746 0.254564 0.230685 0.235078 0.24026 0.210017 0.214158 0.219082 0.254564 0.260439 0.267251 0.24026 0.246739 0.254468 0.219082 0.225404 0.233147 0.210017 0.214158 0.219082 0.184197 0.187704 0.191894 0.153938 0.156595 0.159761 0.219082 0.225404 0.233147 0.191894 0.197438 0.204412 0.159761 0.16411 0.169744 0.146574 0.148142 0.14981 0.114813 0.115964 0.117138 0.0796888 0.0804279 0.0811343 0.14981 0.151754 0.153938 0.117138 0.118481 0.119937 0.0811343 0.0819286 0.0827342 0.0796888 0.0804279 0.0811343 0.0413825 0.04174 0.0420445 0 0 0 0.0811343 0.0819286 0.0827342 0.0420445 0.0423913 0.042693 0 0 0 0.153938 0.156595 0.159761 0.119937 0.121704 0.123769 0.0827342 0.0837137 0.0847872 0.159761 0.16411 0.169744 0.123769 0.126756 0.130765 0.0847872 0.0864788 0.0888629 0.0827342 0.0837137 0.0847872 0.042693 0.0430801 0.0434269 0 0 0 0.0847872 0.0864788 0.0888629 0.0434269 0.0440821 0.0450877 0 0 0 0.253252 0.248316 0.242734 0.253187 0.248609 0.243443 0.254362 0.250572 0.246312 0.242734 0.236307 0.228941 0.243443 0.237509 0.230717 0.246312 0.241449 0.235896 0.254362 0.250572 0.246312 0.25601 0.253314 0.250311 0.257081 0.255628 0.254046 0.246312 0.241449 0.235896 0.250311 0.246925 0.243082 0.254046 0.252331 0.250419 0.228941 0.220191 0.209936 0.230717 0.222641 0.213165 0.235896 0.229277 0.221485 0.209936 0.197711 0.18311 0.213165 0.201834 0.188248 0.221485 0.212112 0.200766 0.235896 0.229277 0.221485 0.243082 0.238472 0.233007 0.250419 0.248085 0.245262 0.221485 0.212112 0.200766 0.233007 0.226353 0.218138 0.245262 0.241719 0.237115 0.257081 0.255628 0.254046 0.256421 0.25619 0.256 0.25298 0.253808 0.254818 0.254046 0.252331 0.250419 0.256 0.255916 0.255886 0.254818 0.256137 0.257727 0.25298 0.253808 0.254818 0.245904 0.247527 0.249426 0.234661 0.236769 0.239196 0.254818 0.256137 0.257727 0.249426 0.251779 0.254558 0.239196 0.242152 0.245621 0.250419 0.248085 0.245262 0.255886 0.25578 0.255554 0.257727 0.259553 0.261598 0.245262 0.241719 0.237115 0.255554 0.255104 0.254128 0.261598 0.263908 0.266231 0.257727 0.259553 0.261598 0.254558 0.257825 0.261587 0.245621 0.249746 0.254564 0.261598 0.263908 0.266231 0.261587 0.266053 0.271029 0.254564 0.260439 0.267251 0.18311 0.171767 0.158918 0.188248 0.177633 0.165555 0.200766 0.191792 0.18148 0.158918 0.144738 0.128791 0.165555 0.152169 0.137031 0.18148 0.169958 0.156774 0.200766 0.191792 0.18148 0.218138 0.211481 0.203685 0.237115 0.233163 0.228336 0.18148 0.169958 0.156774 0.203685 0.194848 0.184529 0.228336 0.222711 0.21587 0.128791 0.111396 0.092018 0.137031 0.120419 0.101779 0.156774 0.142124 0.125435 0.092018 0.0721059 0.0515964 0.101779 0.082512 0.0624752 0.125435 0.107995 0.0894887 0.156774 0.142124 0.125435 0.184529 0.172824 0.159162 0.21587 0.20783 0.198053 0.125435 0.107995 0.0894887 0.159162 0.144683 0.12888 0.198053 0.187523 0.175631 0.237115 0.233163 0.228336 0.254128 0.25294 0.251186 0.266231 0.267621 0.268781 0.228336 0.222711 0.21587 0.251186 0.248936 0.245814 0.268781 0.269791 0.270328 0.266231 0.267621 0.268781 0.271029 0.274566 0.27822 0.267251 0.272366 0.277927 0.268781 0.269791 0.270328 0.27822 0.282078 0.285882 0.277927 0.284042 0.290517 0.21587 0.20783 0.198053 0.245814 0.241789 0.236396 0.270328 0.270349 0.269469 0.198053 0.187523 0.175631 0.236396 0.230488 0.223416 0.269469 0.268416 0.266665 0.270328 0.270349 0.269469 0.285882 0.28959 0.292895 0.290517 0.29732 0.304194 0.269469 0.268416 0.266665 0.292895 0.296364 0.2