# vtk DataFile Version 3.0
#This file was generated by the deal.II library on 2024/9/17 at 11:45:12
ASCII
DATASET UNSTRUCTURED_GRID

POINTS 5760 double
0.11 0.11 0
0.09625 0.10875 0
0.0825 0.1075 0
0.10875 0.09625 0
0.0951562 0.0951563 0
0.0815625 0.0940625 0
0.1075 0.0825 0
0.0940625 0.0815625 0
0.080625 0.080625 0
0.0825 0.1075 0
0.06875 0.10625 0
0.055 0.105 0
0.0815625 0.0940625 0
0.0679688 0.0929688 0
0.054375 0.091875 0
0.080625 0.080625 0
0.0671875 0.0796875 0
0.05375 0.07875 0
0.1075 0.0825 0
0.0940625 0.0815625 0
0.080625 0.080625 0
0.10625 0.06875 0
0.0929688 0.0679688 0
0.0796875 0.0671875 0
0.105 0.055 0
0.091875 0.054375 0
0.07875 0.05375 0
0.080625 0.080625 0
0.0671875 0.0796875 0
0.05375 0.07875 0
0.0796875 0.0671875 0
0.0664063 0.0664062 0
0.053125 0.065625 0
0.07875 0.05375 0
0.065625 0.053125 0
0.0525 0.0525 0
0.055 0.105 0
0.04125 0.10375 0
0.0275 0.1025 0
0.054375 0.091875 0
0.0407813 0.0907813 0
0.0271875 0.0896875 0
0.05375 0.07875 0
0.0403125 0.0778125 0
0.026875 0.076875 0
0.0275 0.1025 0
0.01375 0.10125 0
0 0.1 0
0.0271875 0.0896875 0
0.0135938 0.0885938 0
0 0.0875 0
0.026875 0.076875 0
0.0134375 0.0759375 0
0 0.075 0
0.05375 0.07875 0
0.0403125 0.0778125 0
0.026875 0.076875 0
0.053125 0.065625 0
0.0398438 0.0648438 0
0.0265625 0.0640625 0
0.0525 0.0525 0
0.039375 0.051875 0
0.02625 0.05125 0
0.026875 0.076875 0
0.0134375 0.0759375 0
0 0.075 0
0.0265625 0.0640625 0
0.0132813 0.0632813 0
0 0.0625 0
0.02625 0.05125 0
0.013125 0.050625 0
0 0.05 0
0.105 0.055 0
0.091875 0.054375 0
0.07875 0.05375 0
0.10375 0.04125 0
0.0907813 0.0407813 0
0.0778125 0.0403125 0
0.1025 0.0275 0
0.0896875 0.0271875 0
0.076875 0.026875 0
0.07875 0.05375 0
0.065625 0.053125 0
0.0525 0.0525 0
0.0778125 0.0403125 0
0.0648438 0.0398438 0
0.051875 0.039375 0
0.076875 0.026875 0
0.0640625 0.0265625 0
0.05125 0.02625 0
0.1025 0.0275 0
0.0896875 0.0271875 0
0.076875 0.026875 0
0.10125 0.01375 0
0.0885937 0.0135938 0
0.0759375 0.0134375 0
0.1 0 0
0.0875 0 0
0.075 0 0
0.076875 0.026875 0
0.0640625 0.0265625 0
0.05125 0.02625 0
0.0759375 0.0134375 0
0.0632812 0.0132813 0
0.050625 0.013125 0
0.075 0 0
0.0625 0 0
0.05 0 0
0.0525 0.0525 0
0.039375 0.051875 0
0.02625 0.05125 0
0.051875 0.039375 0
0.0389063 0.0389063 0
0.0259375 0.0384375 0
0.05125 0.02625 0
0.0384375 0.0259375 0
0.025625 0.025625 0
0.02625 0.05125 0
0.013125 0.050625 0
0 0.05 0
0.0259375 0.0384375 0
0.0129688 0.0379688 0
0 0.0375 0
0.025625 0.025625 0
0.0128125 0.0253125 0
0 0.025 0
0.05125 0.02625 0
0.0384375 0.0259375 0
0.025625 0.025625 0
0.050625 0.013125 0
0.0379688 0.0129688 0
0.0253125 0.0128125 0
0.05 0 0
0.0375 0 0
0.025 0 0
0.025625 0.025625 0
0.0128125 0.0253125 0
0 0.025 0
0.0253125 0.0128125 0
0.0126563 0.0126563 0
0 0.0125 0
0.025 0 0
0.0125 0 0
0 0 0
0.2 0.1 0
0.18875 0.10125 0
0.1775 0.1025 0
0.2 0.0875 0
0.188594 0.0885938 0
0.177187 0.0896875 0
0.2 0.075 0
0.188438 0.0759375 0
0.176875 0.076875 0
0.1775 0.1025 0
0.16625 0.10375 0
0.155 0.105 0
0.177187 0.0896875 0
0.165781 0.0907813 0
0.154375 0.091875 0
0.176875 0.076875 0
0.165313 0.0778125 0
0.15375 0.07875 0
0.2 0.075 0
0.188438 0.0759375 0
0.176875 0.076875 0
0.2 0.0625 0
0.188281 0.0632813 0
0.176563 0.0640625 0
0.2 0.05 0
0.188125 0.050625 0
0.17625 0.05125 0
0.176875 0.076875 0
0.165313 0.0778125 0
0.15375 0.07875 0
0.176563 0.0640625 0
0.164844 0.0648438 0
0.153125 0.065625 0
0.17625 0.05125 0
0.164375 0.051875 0
0.1525 0.0525 0
0.155 0.105 0
0.14375 0.10625 0
0.1325 0.1075 0
0.154375 0.091875 0
0.142969 0.0929688 0
0.131562 0.0940625 0
0.15375 0.07875 0
0.142187 0.0796875 0
0.130625 0.080625 0
0.1325 0.1075 0
0.12125 0.10875 0
0.11 0.11 0
0.131562 0.0940625 0
0.120156 0.0951563 0
0.10875 0.09625 0
0.130625 0.080625 0
0.119063 0.0815625 0
0.1075 0.0825 0
0.15375 0.07875 0
0.142187 0.0796875 0
0.130625 0.080625 0
0.153125 0.065625 0
0.141406 0.0664062 0
0.129688 0.0671875 0
0.1525 0.0525 0
0.140625 0.053125 0
0.12875 0.05375 0
0.130625 0.080625 0
0.119063 0.0815625 0
0.1075 0.0825 0
0.129688 0.0671875 0
0.117969 0.0679688 0
0.10625 0.06875 0
0.12875 0.05375 0
0.116875 0.054375 0
0.105 0.055 0
0.2 0.05 0
0.188125 0.050625 0
0.17625 0.05125 0
0.2 0.0375 0
0.187969 0.0379688 0
0.175938 0.0384375 0
0.2 0.025 0
0.187813 0.0253125 0
0.175625 0.025625 0
0.17625 0.05125 0
0.164375 0.051875 0
0.1525 0.0525 0
0.175938 0.0384375 0
0.163906 0.0389063 0
0.151875 0.039375 0
0.175625 0.025625 0
0.163438 0.0259375 0
0.15125 0.02625 0
0.2 0.025 0
0.187813 0.0253125 0
0.175625 0.025625 0
0.2 0.0125 0
0.187656 0.0126563 0
0.175313 0.0128125 0
0.2 0 0
0.1875 0 0
0.175 0 0
0.175625 0.025625 0
0.163438 0.0259375 0
0.15125 0.02625 0
0.175313 0.0128125 0
0.162969 0.0129688 0
0.150625 0.013125 0
0.175 0 0
0.1625 0 0
0.15 0 0
0.1525 0.0525 0
0.140625 0.053125 0
0.12875 0.05375 0
0.151875 0.039375 0
0.139844 0.0398438 0
0.127813 0.0403125 0
0.15125 0.02625 0
0.139063 0.0265625 0
0.126875 0.026875 0
0.12875 0.05375 0
0.116875 0.054375 0
0.105 0.055 0
0.127813 0.0403125 0
0.115781 0.0407813 0
0.10375 0.04125 0
0.126875 0.026875 0
0.114688 0.0271875 0
0.1025 0.0275 0
0.15125 0.02625 0
0.139063 0.0265625 0
0.126875 0.026875 0
0.150625 0.013125 0
0.138281 0.0132813 0
0.125938 0.0134375 0
0.15 0 0
0.1375 0 0
0.125 0 0
0.126875 0.026875 0
0.114688 0.0271875 0
0.1025 0.0275 0
0.125938 0.0134375 0
0.113594 0.0135938 0
0.10125 0.01375 0
0.125 0 0
0.1125 0 0
0.1 0 0
0.1 0.2 0
0.0875 0.2 0
0.075 0.2 0
0.10125 0.18875 0
0.0885937 0.188594 0
0.0759375 0.188438 0
0.1025 0.1775 0
0.0896875 0.177187 0
0.076875 0.176875 0
0.075 0.2 0
0.0625 0.2 0
0.05 0.2 0
0.0759375 0.188438 0
0.0632813 0.188281 0
0.050625 0.188125 0
0.076875 0.176875 0
0.0640625 0.176563 0
0.05125 0.17625 0
0.1025 0.1775 0
0.0896875 0.177187 0
0.076875 0.176875 0
0.10375 0.16625 0
0.0907813 0.165781 0
0.0778125 0.165313 0
0.105 0.155 0
0.091875 0.154375 0
0.07875 0.15375 0
0.076875 0.176875 0
0.0640625 0.176563 0
0.05125 0.17625 0
0.0778125 0.165313 0
0.0648438 0.164844 0
0.051875 0.164375 0
0.07875 0.15375 0
0.065625 0.153125 0
0.0525 0.1525 0
0.05 0.2 0
0.0375 0.2 0
0.025 0.2 0
0.050625 0.188125 0
0.0379688 0.187969 0
0.0253125 0.187813 0
0.05125 0.17625 0
0.0384375 0.175938 0
0.025625 0.175625 0
0.025 0.2 0
0.0125 0.2 0
0 0.2 0
0.0253125 0.187813 0
0.0126563 0.187656 0
0 0.1875 0
0.025625 0.175625 0
0.0128125 0.175313 0
0 0.175 0
0.05125 0.17625 0
0.0384375 0.175938 0
0.025625 0.175625 0
0.051875 0.164375 0
0.0389063 0.163906 0
0.0259375 0.163438 0
0.0525 0.1525 0
0.039375 0.151875 0
0.02625 0.15125 0
0.025625 0.175625 0
0.0128125 0.175313 0
0 0.175 0
0.0259375 0.163438 0
0.0129688 0.162969 0
0 0.1625 0
0.02625 0.15125 0
0.013125 0.150625 0
0 0.15 0
0.105 0.155 0
0.091875 0.154375 0
0.07875 0.15375 0
0.10625 0.14375 0
0.0929688 0.142969 0
0.0796875 0.142187 0
0.1075 0.1325 0
0.0940625 0.131562 0
0.080625 0.130625 0
0.07875 0.15375 0
0.065625 0.153125 0
0.0525 0.1525 0
0.0796875 0.142187 0
0.0664063 0.141406 0
0.053125 0.140625 0
0.080625 0.130625 0
0.0671875 0.129688 0
0.05375 0.12875 0
0.1075 0.1325 0
0.0940625 0.131562 0
0.080625 0.130625 0
0.10875 0.12125 0
0.0951563 0.120156 0
0.0815625 0.119063 0
0.11 0.11 0
0.09625 0.10875 0
0.0825 0.1075 0
0.080625 0.130625 0
0.0671875 0.129688 0
0.05375 0.12875 0
0.0815625 0.119063 0
0.0679688 0.117969 0
0.054375 0.116875 0
0.0825 0.1075 0
0.06875 0.10625 0
0.055 0.105 0
0.0525 0.1525 0
0.039375 0.151875 0
0.02625 0.15125 0
0.053125 0.140625 0
0.0398438 0.139844 0
0.0265625 0.139063 0
0.05375 0.12875 0
0.0403125 0.127813 0
0.026875 0.126875 0
0.02625 0.15125 0
0.013125 0.150625 0
0 0.15 0
0.0265625 0.139063 0
0.0132813 0.138281 0
0 0.1375 0
0.026875 0.126875 0
0.0134375 0.125938 0
0 0.125 0
0.05375 0.12875 0
0.0403125 0.127813 0
0.026875 0.126875 0
0.054375 0.116875 0
0.0407813 0.115781 0
0.0271875 0.114688 0
0.055 0.105 0
0.04125 0.10375 0
0.0275 0.1025 0
0.026875 0.126875 0
0.0134375 0.125938 0
0 0.125 0
0.0271875 0.114688 0
0.0135938 0.113594 0
0 0.1125 0
0.0275 0.1025 0
0.01375 0.10125 0
0 0.1 0
0.29 0.11 0
0.27875 0.10875 0
0.2675 0.1075 0
0.29125 0.09625 0
0.279844 0.0951563 0
0.268437 0.0940625 0
0.2925 0.0825 0
0.280938 0.0815625 0
0.269375 0.080625 0
0.2675 0.1075 0
0.25625 0.10625 0
0.245 0.105 0
0.268437 0.0940625 0
0.257031 0.0929688 0
0.245625 0.091875 0
0.269375 0.080625 0
0.257812 0.0796875 0
0.24625 0.07875 0
0.2925 0.0825 0
0.280938 0.0815625 0
0.269375 0.080625 0
0.29375 0.06875 0
0.282031 0.0679688 0
0.270313 0.0671875 0
0.295 0.055 0
0.283125 0.054375 0
0.27125 0.05375 0
0.269375 0.080625 0
0.257812 0.0796875 0
0.24625 0.07875 0
0.270313 0.0671875 0
0.258594 0.0664062 0
0.246875 0.065625 0
0.27125 0.05375 0
0.259375 0.053125 0
0.2475 0.0525 0
0.245 0.105 0
0.23375 0.10375 0
0.2225 0.1025 0
0.245625 0.091875 0
0.234219 0.0907813 0
0.222813 0.0896875 0
0.24625 0.07875 0
0.234687 0.0778125 0
0.223125 0.076875 0
0.2225 0.1025 0
0.21125 0.10125 0
0.2 0.1 0
0.222813 0.0896875 0
0.211406 0.0885937 0
0.2 0.0875 0
0.223125 0.076875 0
0.211563 0.0759375 0
0.2 0.075 0
0.24625 0.07875 0
0.234687 0.0778125 0
0.223125 0.076875 0
0.246875 0.065625 0
0.235156 0.0648438 0
0.223438 0.0640625 0
0.2475 0.0525 0
0.235625 0.051875 0
0.22375 0.05125 0
0.223125 0.076875 0
0.211563 0.0759375 0
0.2 0.075 0
0.223438 0.0640625 0
0.211719 0.0632813 0
0.2 0.0625 0
0.22375 0.05125 0
0.211875 0.050625 0
0.2 0.05 0
0.295 0.055 0
0.283125 0.054375 0
0.27125 0.05375 0
0.29625 0.04125 0
0.284219 0.0407813 0
0.272188 0.0403125 0
0.2975 0.0275 0
0.285312 0.0271875 0
0.273125 0.026875 0
0.27125 0.05375 0
0.259375 0.053125 0
0.2475 0.0525 0
0.272188 0.0403125 0
0.260156 0.0398438 0
0.248125 0.039375 0
0.273125 0.026875 0
0.260937 0.0265625 0
0.24875 0.02625 0
0.2975 0.0275 0
0.285312 0.0271875 0
0.273125 0.026875 0
0.29875 0.01375 0
0.286406 0.0135938 0
0.274062 0.0134375 0
0.3 0 0
0.2875 0 0
0.275 0 0
0.273125 0.026875 0
0.260937 0.0265625 0
0.24875 0.02625 0
0.274062 0.0134375 0
0.261719 0.0132813 0
0.249375 0.013125 0
0.275 0 0
0.2625 0 0
0.25 0 0
0.2475 0.0525 0
0.235625 0.051875 0
0.22375 0.05125 0
0.248125 0.039375 0
[...]
POINT_DATA 5760
SCALARS x_velo double 1
LOOKUP_TABLE default
0.259745 0.249882 0.243055 0.248428 0.237095 0.22836 0.231103 0.219184 0.209428 0.243055 0.23716 0.232933 0.22836 0.220953 0.21532 0.209428 0.20116 0.194614 0.231103 0.219184 0.209428 0.208536 0.19652 0.186398 0.181131 0.169523 0.159518 0.209428 0.20116 0.194614 0.186398 0.177757 0.170773 0.159518 0.150944 0.143919 0.232933 0.22915 0.226088 0.21532 0.21051 0.206729 0.194614 0.18915 0.1849 0.226088 0.223426 0.221297 0.206729 0.203677 0.201443 0.1849 0.181608 0.179358 0.194614 0.18915 0.1849 0.170773 0.165008 0.160549 0.143919 0.138167 0.133741 0.1849 0.181608 0.179358 0.160549 0.157206 0.155042 0.133741 0.130496 0.128495 0.181131 0.169523 0.159518 0.148775 0.137945 0.128549 0.109588 0.100469 0.0925397 0.159518 0.150944 0.143919 0.128549 0.120481 0.113858 0.0925397 0.0857493 0.0801847 0.109588 0.100469 0.0925397 0.06092 0.0550841 0.0500685 0 0 0 0.0925397 0.0857493 0.0801847 0.0500685 0.0457736 0.042296 0 0 0 0.143919 0.138167 0.133741 0.113858 0.108479 0.104391 0.0801847 0.0757154 0.0723771 0.133741 0.130496 0.128495 0.104391 0.101456 0.0997174 0.0723771 0.0700395 0.0687091 0.0801847 0.0757154 0.0723771 0.042296 0.039511 0.037512 0 0 0 0.0723771 0.0700395 0.0687091 0.037512 0.0361465 0.03547 0 0 0 0.386169 0.375878 0.359942 0.364121 0.35263 0.337655 0.335609 0.324392 0.310805 0.359942 0.340889 0.319438 0.337655 0.321019 0.302996 0.310805 0.296199 0.280785 0.335609 0.324392 0.310805 0.30451 0.293945 0.281647 0.269709 0.260076 0.248938 0.310805 0.296199 0.280785 0.281647 0.268587 0.254916 0.248938 0.237115 0.224748 0.319438 0.300198 0.282971 0.302996 0.286445 0.271202 0.280785 0.266291 0.252789 0.282971 0.26978 0.259745 0.271202 0.258586 0.248428 0.252789 0.241075 0.231103 0.280785 0.266291 0.252789 0.254916 0.24183 0.229445 0.224748 0.212715 0.201171 0.252789 0.241075 0.231103 0.229445 0.218324 0.208536 0.201171 0.190588 0.181131 0.269709 0.260076 0.248938 0.228388 0.220175 0.210511 0.174537 0.168434 0.160943 0.248938 0.237115 0.224748 0.210511 0.200104 0.1891 0.160943 0.152639 0.143693 0.174537 0.168434 0.160943 0.100799 0.0976204 0.0933302 0 0 0 0.160943 0.152639 0.143693 0.0933302 0.0883997 0.0828725 0 0 0 0.224748 0.212715 0.201171 0.1891 0.178208 0.167618 0.143693 0.13466 0.125761 0.201171 0.190588 0.181131 0.167618 0.157744 0.148775 0.125761 0.117338 0.109588 0.143693 0.13466 0.125761 0.0828725 0.0771781 0.0714697 0 0 0 0.125761 0.117338 0.109588 0.0714697 0.0659901 0.06092 0 0 0 0.217861 0.242317 0.260414 0.217302 0.241523 0.259263 0.222173 0.243229 0.259084 0.260414 0.27419 0.283955 0.259263 0.272747 0.282363 0.259084 0.271081 0.279809 0.222173 0.243229 0.259084 0.231421 0.247286 0.259765 0.242087 0.251867 0.260173 0.259084 0.271081 0.279809 0.259765 0.269176 0.276312 0.260173 0.266384 0.271458 0.283955 0.291257 0.296035 0.282363 0.289499 0.294167 0.279809 0.286235 0.290428 0.296035 0.298921 0.299822 0.294167 0.29695 0.297814 0.290428 0.292889 0.293575 0.279809 0.286235 0.290428 0.276312 0.281469 0.284827 0.271458 0.27499 0.277259 0.290428 0.292889 0.293575 0.284827 0.2867 0.287106 0.277259 0.27838 0.278406 0.242087 0.251867 0.260173 0.25199 0.255536 0.25946 0.258689 0.25704 0.256746 0.260173 0.266384 0.271458 0.25946 0.262274 0.264989 0.256746 0.256289 0.25657 0.258689 0.25704 0.256746 0.261282 0.25522 0.251346 0.259745 0.249882 0.243055 0.256746 0.256289 0.25657 0.251346 0.247994 0.245929 0.243055 0.23716 0.232933 0.271458 0.27499 0.277259 0.264989 0.266681 0.267677 0.25657 0.25635 0.255985 0.277259 0.27838 0.278406 0.267677 0.267915 0.267475 0.255985 0.255264 0.254313 0.25657 0.25635 0.255985 0.245929 0.243873 0.242142 0.232933 0.22915 0.226088 0.255985 0.255264 0.254313 0.242142 0.240455 0.23892 0.226088 0.223426 0.221297 0.328794 0.338212 0.349354 0.360913 0.367598 0.37418 0.364268 0.367612 0.370077 0.349354 0.361247 0.373745 0.37418 0.379792 0.38412 0.370077 0.370835 0.369714 0.364268 0.367612 0.370077 0.345884 0.347154 0.347205 0.311961 0.312646 0.312013 0.370077 0.370835 0.369714 0.347205 0.345505 0.341982 0.312013 0.309689 0.305613 0.373745 0.38434 0.391865 0.38412 0.385333 0.383105 0.369714 0.365741 0.358805 0.391865 0.392691 0.386169 0.383105 0.375968 0.364121 0.358805 0.34873 0.335609 0.369714 0.365741 0.358805 0.341982 0.33612 0.327889 0.305613 0.299548 0.291461 0.358805 0.34873 0.335609 0.327889 0.317353 0.30451 0.291461 0.281503 0.269709 0.311961 0.312646 0.312013 0.262345 0.263758 0.263858 0.194338 0.196757 0.198098 0.312013 0.309689 0.305613 0.263858 0.262363 0.259188 0.198098 0.198086 0.196602 0.194338 0.196757 0.198098 0.106202 0.108621 0.110442 0 0 0 0.198098 0.198086 0.196602 0.110442 0.11146 0.111535 0 0 0 0.305613 0.299548 0.291461 0.259188 0.254192 0.247314 0.196602 0.193516 0.188737 0.291461 0.281503 0.269709 0.247314 0.238727 0.228388 0.188737 0.182413 0.174537 0.196602 0.193516 0.188737 0.111535 0.110583 0.108428 0 0 0 0.188737 0.182413 0.174537 0.108428 0.105222 0.100799 0 0 0 0.314326 0.317514 0.320337 0.31672 0.323157 0.329379 0.304457 0.313092 0.321561 0.320337 0.322608 0.324375 0.329379 0.335239 0.340781 0.321561 0.329675 0.337432 0.304457 0.313092 0.321561 0.278295 0.288249 0.298124 0.239337 0.249688 0.260133 0.321561 0.329675 0.337432 0.298124 0.30767 0.316806 0.260133 0.270414 0.280393 0.324375 0.325667 0.326626 0.340781 0.346 0.351009 0.337432 0.344701 0.351549 0.326626 0.327488 0.328794 0.351009 0.355943 0.360913 0.351549 0.358009 0.364268 0.337432 0.344701 0.351549 0.316806 0.325272 0.333039 0.280393 0.289729 0.29831 0.351549 0.358009 0.364268 0.333039 0.339911 0.345884 0.29831 0.305749 0.311961 0.239337 0.249688 0.260133 0.189277 0.198829 0.208677 0.130587 0.138051 0.14592 0.260133 0.270414 0.280393 0.208677 0.218622 0.228547 0.14592 0.154099 0.162534 0.130587 0.138051 0.14592 0.0665053 0.0706901 0.0751903 0 0 0 0.14592 0.154099 0.162534 0.0751903 0.0799655 0.0850633 0 0 0 0.280393 0.289729 0.29831 0.228547 0.238108 0.247164 0.162534 0.170974 0.179298 0.29831 0.305749 0.311961 0.247164 0.255288 0.262345 0.179298 0.187148 0.194338 0.162534 0.170974 0.179298 0.0850633 0.0903172 0.0957185 0 0 0 0.179298 0.187148 0.194338 0.0957185 0.101034 0.106202 0 0 0 0.0617162 0.0495785 0.0380075 0.0722041 0.0599595 0.0481984 0.0983516 0.0862509 0.0744512 0.0380075 0.0268399 0.0161776 0.0481984 0.0367388 0.0256859 0.0744512 0.0626982 0.0510858 0.0983516 0.0862509 0.0744512 0.136342 0.124953 0.113592 0.181145 0.17125 0.161143 0.0744512 0.0626982 0.0510858 0.113592 0.101939 0.09006 0.161143 0.15042 0.139126 0.0161776 0.00627474 -0.00224869 0.0256859 0.015294 0.00614144 0.0510858 0.0398101 0.0293422 -0.00224869 -0.0092472 -0.0139034 0.00614144 -0.00163587 -0.00728966 0.0293422 0.0197102 0.0114344 0.0510858 0.0398101 0.0293422 0.09006 0.0780546 0.066225 0.139126 0.127243 0.114929 0.0293422 0.0197102 0.0114344 0.066225 0.0544594 0.042963 0.114929 0.101942 0.0882911 0.181145 0.17125 0.161143 0.226462 0.219046 0.211236 0.266968 0.26281 0.258216 0.161143 0.15042 0.139126 0.211236 0.202626 0.193247 0.258216 0.252814 0.246644 0.266968 0.26281 0.258216 0.297191 0.296704 0.295808 0.314326 0.317514 0.320337 0.258216 0.252814 0.246644 0.295808 0.294228 0.292012 0.320337 0.322608 0.324375 0.139126 0.127243 0.114929 0.193247 0.183001 0.171947 0.246644 0.239601 0.231743 0.114929 0.101942 0.0882911 0.171947 0.159883 0.146723 0.231743 0.222974 0.213601 0.246644 0.239601 0.231743 0.292012 0.289122 0.285659 0.324375 0.325667 0.326626 0.231743 0.222974 0.213601 0.285659 0.281708 0.277342 0.326626 0.327488 0.328794 0.320085 0.321805 0.323317 0.297832 0.296205 0.294317 0.263401 0.258402 0.253113 0.323317 0.324453 0.325274 0.294317 0.291903 0.289023 0.253113 0.247172 0.240631 0.263401 0.258402 0.253113 0.219876 0.211919 0.203716 0.17299 0.162828 0.152598 0.253113 0.247172 0.240631 0.203716 0.194875 0.185432 0.152598 0.141912 0.130814 0.325274 0.325814 0.326223 0.289023 0.285648 0.281889 0.240631 0.233391 0.225515 0.326223 0.326752 0.327974 0.281889 0.277829 0.273535 0.225515 0.216895 0.207827 0.240631 0.233391 0.225515 0.185432 0.175298 0.164533 0.130814 0.119294 0.107511 0.225515 0.216895 0.207827 0.164533 0.152926 0.140377 0.107511 0.0952152 0.0824015 0.17299 0.162828 0.152598 0.128249 0.116801 0.105503 0.091853 0.0798004 0.0681378 0.152598 0.141912 0.130814 0.105503 0.0940538 0.0825145 0.0681378 0.0566253 0.0453512 0.091853 0.0798004 0.0681378 0.0685992 0.0564072 0.0447455 0.0617162 0.0495785 0.0380075 0.0681378 0.0566253 0.0453512 0.0447455 0.033439 0.0225898 0.0380075 0.0268399 0.0161776 0.130814 0.119294 0.107511 0.0825145 0.0709874 0.0597766 0.0453512 0.0345112 0.0245774 0.107511 0.0952152 0.0824015 0.0597766 0.0487647 0.0381505 0.0245774 0.0155743 0.00801968 0.0453512 0.0345112 0.0245774 0.0225898 0.0124507 0.00360097 0.0161776 0.00627474 -0.00224869 0.0245774 0.0155743 0.00801968 0.00360097 -0.00382588 -0.00907969 -0.00224869 -0.0092472 -0.0139034 0 0 0 0.0746338 0.078774 0.0831328 0.144874 0.151962 0.159279 0 0 0 0.0831328 0.0876789 0.0924433 0.159279 0.166732 0.174257 0.144874 0.151962 0.159279 0.207244 0.2159 0.224626 0.258483 0.267458 0.276328 0.159279 0.166732 0.174257 0.224626 0.233239 0.241634 0.276328 0.284872 0.292989 0 0 0 0.0924433 0.0972618 0.102105 0.174257 0.181612 0.188678 0 0 0 0.102105 0.106765 0.111173 0.188678 0.195138 0.200828 0.174257 0.181612 0.188678 0.241634 0.249507 0.256747 0.292989 0.300397 0.307026 0.188678 0.195138 0.200828 0.256747 0.263006 0.268189 0.307026 0.312563 0.316953 0.258483 0.267458 0.276328 0.296497 0.304822 0.312977 0.320168 0.327198 0.334101 0.276328 0.284872 0.292989 0.312977 0.320768 0.328157 0.334101 0.34075 0.347178 0.320168 0.327198 0.334101 0.328444 0.333425 0.338322 0.320085 0.321805 0.323317 0.334101 0.34075 0.347178 0.338322 0.343034 0.347623 0.323317 0.324453 0.325274 0.292989 0.300397 0.307026 0.328157 0.334939 0.341112 0.347178 0.353287 0.359151 0.307026 0.312563 0.316953 0.341112 0.346511 0.351126 0.359151 0.364797 0.37038 0.347178 0.353287 0.359151 0.347623 0.352095 0.356557 0.325274 0.325814 0.326223 0.359151 0.364797 0.37038 0.356557 0.361115 0.365854 0.326223 0.326752 0.327974 0 0 0 0.111173 0.112925 0.114061 0.200828 0.202097 0.20233 0 0 0 0.114061 0.114435 0.113922 0.20233 0.201328 0.198999 0.200828 0.202097 0.20233 0.268189 0.26831 0.267218 0.316953 0.316447 0.314736 0.20233 0.201328 0.198999 0.267218 0.264716 0.260739 0.314736 0.311531 0.306783 0 0 0 0.113922 0.112488 0.109988 0.198999 0.195282 0.190111 0 0 0 0.109988 0.106575 0.102126 0.190111 0.183644 0.175896 0.198999 0.195282 0.190111 0.260739 0.255214 0.248097 0.306783 0.300334 0.292163 0.190111 0.183644 0.175896 0.248097 0.239562 0.229576 0.292163 0.282427 0.271165 0.316953 0.316447 0.314736 0.351126 0.351446 0.350595 0.37038 0.373147 0.374983 0.314736 0.311531 0.306783 0.350595 0.348123 0.343978 0.374983 0.375105 0.373368 0.37038 0.373147 0.374983 0.365854 0.372621 0.379226 0.327974 0.338108 0.350078 0.374983 0.375105 0.373368 0.379226 0.38479 0.388984 0.350078 0.362893 0.376351 0.306783 0.300334 0.292163 0.343978 0.337753 0.329437 0.373368 0.368945 0.361776 0.292163 0.282427 0.271165 0.329437 0.319143 0.306873 0.361776 0.351829 0.339199 0.373368 0.368945 0.361776 0.388984 0.390046 0.387708 0.376351 0.387883 0.396267 0.361776 0.351829 0.339199 0.387708 0.380646 0.369153 0.396267 0.397814 0.39195 0.269639 0.26065 0.254598 0.269788 0.264556 0.261393 0.265851 0.264956 0.265305 0.254598 0.249377 0.245753 0.261393 0.258657 0.257134 0.265305 0.265398 0.266157 0.265851 0.264956 0.265305 0.257839 0.262058 0.266548 0.246677 0.257031 0.265812 0.265305 0.265398 0.266157 0.266548 0.26984 0.272964 0.265812 0.27242 0.277828 0.245753 0.242462 0.239817 0.257134 0.255517 0.254155 0.266157 0.266322 0.26628 0.239817 0.237473 0.235574 0.254155 0.252746 0.251413 0.26628 0.265802 0.265021 0.266157 0.266322 0.26628 0.272964 0.274985 0.276252 0.277828 0.28163 0.284117 0.26628 0.265802 0.265021 0.276252 0.276695 0.276398 0.284117 0.285404 0.285544 0.246677 0.257031 0.265812 0.234808 0.251131 0.263978 0.224412 0.245777 0.261884 0.265812 0.27242 0.277828 0.263978 0.273697 0.281085 0.261884 0.274092 0.282989 0.224412 0.245777 0.261884 0.218418 0.242799 0.260665 0.217861 0.242317 0.260414 0.261884 0.274092 0.282989 0.260665 0.274254 0.283954 0.260414 0.27419 0.283955 0.277828 0.28163 0.284117 0.281085 0.286448 0.28997 0.282989 0.289554 0.293857 0.284117 0.285404 0.285544 0.28997 0.291967 0.29246 0.293857 0.296402 0.297145 0.282989 0.289554 0.293857 0.283954 0.291159 0.295881 0.283955 0.291257 0.296035 0.293857 0.296402 0.297145 0.295881 0.298705 0.299598 0.296035 0.298921 0.299822 0 0 0 0.102126 0.0988696 0.0946783 0.175896 0.169843 0.162657 0 0 0 0.0946783 0.0899374 0.0846954 0.162657 0.154803 0.146434 0.175896 0.169843 0.162657 0.229576 0.221651 0.212553 0.271165 0.262036 0.251674 0.162657 0.154803 0.146434 0.212553 0.202857 0.192687 0.251674 0.240758 0.229405 0 0 0 0.0846954 0.0793071 0.0739048 0.146434 0.138004 0.129701 0 0 0 0.0739048 0.0687028 0.0638557 0.129701 0.121822 0.114534 0.146434 0.138004 0.129701 0.192687 0.182634 0.172859 0.229405 0.218362 0.207758 0.129701 0.121822 0.114534 0.172859 0.163721 0.155382 0.207758 0.198009 0.189261 0.271165 0.262036 0.251674 0.306873 0.296909 0.285492 0.339199 0.32856 0.31583 0.251674 0.240758 0.229405 0.285492 0.273434 0.260869 0.31583 0.302205 0.287878 0.339199 0.32856 0.31583 0.369153 0.358079 0.343796 0.39195 0.382 0.366492 0.31583 0.302205 0.287878 0.343796 0.327979 0.310863 0.366492 0.347939 0.327062 0.229405 0.218362 0.207758 0.260869 0.248835 0.237423 0.287878 0.274398 0.26182 0.207758 0.198009 0.189261 0.237423 0.227143 0.21804 0.26182 0.250889 0.241541 0.287878 0.274398 0.26182 0.310863 0.295177 0.280698 0.327062 0.308457 0.29184 0.26182 0.250889 0.241541 0.280698 0.268725 0.259068 0.29184 0.279211 0.269639 0 0 0 0.0638557 0.0582401 0.0533617 0.114534 0.105888 0.0983012 0 0 0 0.0533617 0.0491563 0.0457165 0.0983012 0.091763 0.0863607 0.114534 0.105888 0.0983012 0.155382 0.145198 0.136296 0.189261 0.178383 0.168948 0.0983012 0.091763 0.0863607 0.136296 0.128615 0.122263 0.168948 0.160833 0.154147 0 0 0 0.0457165 0.0429495 0.0409472 0.0863607 0.0819997 0.0787164 0 0 0 0.0409472 0.039577 0.0388943 0.0787164 0.0764089 0.0750892 0.0863607 0.0819997 0.0787164 0.122263 0.117083 0.113124 0.154147 0.148657 0.144418 0.0787164 0.0764089 0.0750892 0.113124 0.110277 0.108585 0.144418 0.141306 0.139381 0.189261 0.178383 0.168948 0.21804 0.206754 0.197204 0.241541 0.230346 0.221154 0.168948 0.160833 0.154147 0.197204 0.189039 0.182422 0.221154 0.213375 0.207221 0.241541 0.230346 0.221154 0.259068 0.248463 0.240345 0.269639 0.26065 0.254598 0.221154 0.213375 0.207221 0.240345 0.23348 0.228315 0.254598 0.249377 0.245753 0.154147 0.148657 0.144418 0.182422 0.17695 0.172715 0.207221 0.202081 0.198091 0.144418 0.141306 0.139381 0.172715 0.169538 0.167478 0.198091 0.194992 0.192876 0.207221 0.202081 0.198091 0.228315 0.223893 0.22044 0.245753 0.242462 0.239817 0.198091 0.194992 0.192876 0.22044 0.217636 0.215575 0.239817 0.237473 0.235574 0.259054 0.264039 0.269605 0.246542 0.252127 0.258574 0.22656 0.232071 0.238641 0.269605 0.275928 0.282797 0.258574 0.266092 0.274566 0.238641 0.246509 0.255666 0.22656 0.232071 0.238641 0.199841 0.204707 0.210717 0.167367 0.171181 0.176103 0.238641 0.246509 0.255666 0.210717 0.218127 0.227032 0.176103 0.182374 0.19018 0.282797 0.290174 0.297758 0.274566 0.284007 0.294175 0.255666 0.266199 0.277945 0.297758 0.305977 0.314326 0.294175 0.305232 0.31672 0.277945 0.29084 0.304457 0.255666 0.266199 0.277945 0.227032 0.237618 0.249834 0.19018 0.199792 0.21131 0.277945 0.29084 0.304457 0.249834 0.263498 0.278295 0.21131 0.224544 0.239337 0.167367 0.171181 0.176103 0.130221 0.132807 0.136345 0.0893756 0.090788 0.0929004 0.176103 0.182374 0.19018 0.136345 0.141033 0.147097 0.0929004 0.095842 0.0998178 0.0893756 0.090788 0.0929004 0.0457076 0.0462041 0.0470895 0 0 0 0.0929004 0.095842 0.0998178 0.0470895 0.0484013 0.0502809 0 0 0 0.19018 0.199792 0.21131 0.147097 0.154851 0.16453 0.0998178 0.105107 0.112028 0.21131 0.224544 0.239337 0.16453 0.175975 0.189277 0.112028 0.120432 0.130587 0.0998178 0.105107 0.112028 0.0502809 0.0528611 0.056471 0 0 0 0.112028 0.120432 0.130587 0.056471 0.060911 0.0665053 0 0 0 0.233239 0.234405 0.235859 0.219559 0.220806 0.222327 0.20177 0.202939 0.204327 0.235859 0.237823 0.24031 0.222327 0.224341 0.226862 0.204327 0.206139 0.208375 0.20177 0.202939 0.204327 0.179574 0.180563 0.181696 0.152762 0.153526 0.154354 0.204327 0.206139 0.208375 0.181696 0.183149 0.184904 0.154354 0.155392 0.156594 0.24031 0.243515 0.247505 0.226862 0.230125 0.23421 0.208375 0.211285 0.214947 0.247505 0.2527 0.259054 0.23421 0.239676 0.246542 0.214947 0.220012 0.22656 0.208375 0.211285 0.214947 0.184904 0.187195 0.190083 0.156594 0.158165 0.160123 0.214947 0.220012 0.22656 0.190083 0.19426 0.199841 0.160123 0.16315 0.167367 0.152762 0.153526 0.154354 0.121221 0.121759 0.122294 0.085011 0.0853464 0.085636 0.154354 0.155392 0.156594 0.122294 0.122943 0.123637 0.085636 0.0859753 0.0862752 0.085011 0.0853464 0.085636 0.0444125 0.0445755 0.0446819 0 0 0 0.085636 0.0859753 0.0862752 0.0446819 0.0448116 0.0448693 0 0 0 0.156594 0.158165 0.160123 0.123637 0.124539 0.125607 0.0862752 0.0866677 0.0870427 0.160123 0.16315 0.167367 0.125607 0.127468 0.130221 0.0870427 0.0879256 0.0893756 0.0862752 0.0866677 0.0870427 0.0448693 0.0449694 0.0449605 0 0 0 0.0870427 0.0879256 0.0893756 0.0449605 0.0451987 0.0457076 0 0 0 0.257091 0.253837 0.249968 0.256625 0.253546 0.249906 0.256563 0.253964 0.250917 0.249968 0.245228 0.23954 0.249906 0.245475 0.240184 0.250917 0.24725 0.242906 0.256563 0.253964 0.250917 0.256498 0.254598 0.252406 0.25583 0.254737 0.253524 0.250917 0.24725 0.242906 0.252406 0.249827 0.24682 0.253524 0.252184 0.250691 0.23954 0.232423 0.223755 0.240184 0.233585 0.225565 0.242906 0.237506 0.230957 0.223755 0.212833 0.199313 0.225565 0.215458 0.202926 0.230957 0.222679 0.212351 0.242906 0.237506 0.230957 0.24682 0.243098 0.238594 0.250691 0.248866 0.246671 0.230957 0.222679 0.212351 0.238594 0.232857 0.225593 0.246671 0.243816 0.240038 0.25583 0.254737 0.253524 0.253857 0.25356 0.253305 0.249865 0.25025 0.250808 0.253524 0.252184 0.250691 0.253305 0.253167 0.253137 0.250808 0.251684 0.25288 0.249865 0.25025 0.250808 0.243183 0.244065 0.245203 0.233239 0.234405 0.235859 0.250808 0.251684 0.25288 0.245203 0.246793 0.248845 0.235859 0.237823 0.24031 0.250691 0.248866 0.246671 0.253137 0.253145 0.253184 0.25288 0.254433 0.256363 0.246671 0.243816 0.240038 0.253184 0.253138 0.252785 0.256363 0.25874 0.261392 0.25288 0.254433 0.256363 0.248845 0.251485 0.254759 0.24031 0.243515 0.247505 0.256363 0.25874 0.261392 0.254759 0.258921 0.263855 0.247505 0.2527 0.259054 0.199313 0.188435 0.175789 0.202926 0.192802 0.180986 0.212351 0.203917 0.193977 0.175789 0.161517 0.145107 0.180986 0.167605 0.152141 0.193977 0.182639 0.169383 0.212351 0.203917 0.193977 0.225593 0.21952 0.212213 0.240038 0.236676 0.232418 0.193977 0.182639 0.169383 0.212213 0.203769 0.193676 0.232418 0.227359 0.221012 0.145107 0.126817 0.10599 0.152141 0.134803 0.114915 0.169383 0.15433 0.136789 0.10599 0.0843703 0.0617162 0.114915 0.0941579 0.0722041 0.136789 0.118301 0.0983516 0.169383 0.15433 0.136789 0.193676 0.181959 0.167935 0.221012 0.213329 0.20367 0.136789 0.118301 0.0983516 0.167935 0.152968 0.136342 0.20367 0.193215 0.181145 0.240038 0.236676 0.232418 0.252785 0.252124 0.250942 0.261392 0.263162 0.264796 0.232418 0.227359 0.221012 0.250942 0.249338 0.246876 0.264796 0.266416 0.26765 0.261392 0.263162 0.264796 0.263855 0.267545 0.271477 0.259054 0.264039 0.269605 0.264796 0.266416 0.26765 0.271477 0.275792 0.280197 0.269605 0.275928 0.282797 0.221012 0.213329 0.20367 0.246876 0.243469 0.238563 0.26765 0.26841 0.268235 0.20367 0.193215 0.181145 0.238563 0.233177 0.226462 0.268235 0.267991 0.266968 0.26765 0.26841 0.268235 0.280197 0.284621 0.288696 0.282797 0.290174 0.297758 0.268235 0.267991 0.266968 0.288696 0.293096 