# vtk DataFile Version 3.0
#This file was generated by the deal.II library on 2024/9/17 at 11:45:46
ASCII
DATASET UNSTRUCTURED_GRID

POINTS 5760 double
0.11 0.11 0
0.09625 0.10875 0
0.0825 0.1075 0
0.10875 0.09625 0
0.0951562 0.0951563 0
0.0815625 0.0940625 0
0.1075 0.0825 0
0.0940625 0.0815625 0
0.080625 0.080625 0
0.0825 0.1075 0
0.06875 0.10625 0
0.055 0.105 0
0.0815625 0.0940625 0
0.0679688 0.0929688 0
0.054375 0.091875 0
0.080625 0.080625 0
0.0671875 0.0796875 0
0.05375 0.07875 0
0.1075 0.0825 0
0.0940625 0.0815625 0
0.080625 0.080625 0
0.10625 0.06875 0
0.0929688 0.0679688 0
0.0796875 0.0671875 0
0.105 0.055 0
0.091875 0.054375 0
0.07875 0.05375 0
0.080625 0.080625 0
0.0671875 0.0796875 0
0.05375 0.07875 0
0.0796875 0.0671875 0
0.0664063 0.0664062 0
0.053125 0.065625 0
0.07875 0.05375 0
0.065625 0.053125 0
0.0525 0.0525 0
0.055 0.105 0
0.04125 0.10375 0
0.0275 0.1025 0
0.054375 0.091875 0
0.0407813 0.0907813 0
0.0271875 0.0896875 0
0.05375 0.07875 0
0.0403125 0.0778125 0
0.026875 0.076875 0
0.0275 0.1025 0
0.01375 0.10125 0
0 0.1 0
0.0271875 0.0896875 0
0.0135938 0.0885938 0
0 0.0875 0
0.026875 0.076875 0
0.0134375 0.0759375 0
0 0.075 0
0.05375 0.07875 0
0.0403125 0.0778125 0
0.026875 0.076875 0
0.053125 0.065625 0
0.0398438 0.0648438 0
0.0265625 0.0640625 0
0.0525 0.0525 0
0.039375 0.051875 0
0.02625 0.05125 0
0.026875 0.076875 0
0.0134375 0.0759375 0
0 0.075 0
0.0265625 0.0640625 0
0.0132813 0.0632813 0
0 0.0625 0
0.02625 0.05125 0
0.013125 0.050625 0
0 0.05 0
0.105 0.055 0
0.091875 0.054375 0
0.07875 0.05375 0
0.10375 0.04125 0
0.0907813 0.0407813 0
0.0778125 0.0403125 0
0.1025 0.0275 0
0.0896875 0.0271875 0
0.076875 0.026875 0
0.07875 0.05375 0
0.065625 0.053125 0
0.0525 0.0525 0
0.0778125 0.0403125 0
0.0648438 0.0398438 0
0.051875 0.039375 0
0.076875 0.026875 0
0.0640625 0.0265625 0
0.05125 0.02625 0
0.1025 0.0275 0
0.0896875 0.0271875 0
0.076875 0.026875 0
0.10125 0.01375 0
0.0885937 0.0135938 0
0.0759375 0.0134375 0
0.1 0 0
0.0875 0 0
0.075 0 0
0.076875 0.026875 0
0.0640625 0.0265625 0
0.05125 0.02625 0
0.0759375 0.0134375 0
0.0632812 0.0132813 0
0.050625 0.013125 0
0.075 0 0
0.0625 0 0
0.05 0 0
0.0525 0.0525 0
0.039375 0.051875 0
0.02625 0.05125 0
0.051875 0.039375 0
0.0389063 0.0389063 0
0.0259375 0.0384375 0
0.05125 0.02625 0
0.0384375 0.0259375 0
0.025625 0.025625 0
0.02625 0.05125 0
0.013125 0.050625 0
0 0.05 0
0.0259375 0.0384375 0
0.0129688 0.0379688 0
0 0.0375 0
0.025625 0.025625 0
0.0128125 0.0253125 0
0 0.025 0
0.05125 0.02625 0
0.0384375 0.0259375 0
0.025625 0.025625 0
0.050625 0.013125 0
0.0379688 0.0129688 0
0.0253125 0.0128125 0
0.05 0 0
0.0375 0 0
0.025 0 0
0.025625 0.025625 0
0.0128125 0.0253125 0
0 0.025 0
0.0253125 0.0128125 0
0.0126563 0.0126563 0
0 0.0125 0
0.025 0 0
0.0125 0 0
0 0 0
0.2 0.1 0
0.18875 0.10125 0
0.1775 0.1025 0
0.2 0.0875 0
0.188594 0.0885938 0
0.177187 0.0896875 0
0.2 0.075 0
0.188438 0.0759375 0
0.176875 0.076875 0
0.1775 0.1025 0
0.16625 0.10375 0
0.155 0.105 0
0.177187 0.0896875 0
0.165781 0.0907813 0
0.154375 0.091875 0
0.176875 0.076875 0
0.165313 0.0778125 0
0.15375 0.07875 0
0.2 0.075 0
0.188438 0.0759375 0
0.176875 0.076875 0
0.2 0.0625 0
0.188281 0.0632813 0
0.176563 0.0640625 0
0.2 0.05 0
0.188125 0.050625 0
0.17625 0.05125 0
0.176875 0.076875 0
0.165313 0.0778125 0
0.15375 0.07875 0
0.176563 0.0640625 0
0.164844 0.0648438 0
0.153125 0.065625 0
0.17625 0.05125 0
0.164375 0.051875 0
0.1525 0.0525 0
0.155 0.105 0
0.14375 0.10625 0
0.1325 0.1075 0
0.154375 0.091875 0
0.142969 0.0929688 0
0.131562 0.0940625 0
0.15375 0.07875 0
0.142187 0.0796875 0
0.130625 0.080625 0
0.1325 0.1075 0
0.12125 0.10875 0
0.11 0.11 0
0.131562 0.0940625 0
0.120156 0.0951563 0
0.10875 0.09625 0
0.130625 0.080625 0
0.119063 0.0815625 0
0.1075 0.0825 0
0.15375 0.07875 0
0.142187 0.0796875 0
0.130625 0.080625 0
0.153125 0.065625 0
0.141406 0.0664062 0
0.129688 0.0671875 0
0.1525 0.0525 0
0.140625 0.053125 0
0.12875 0.05375 0
0.130625 0.080625 0
0.119063 0.0815625 0
0.1075 0.0825 0
0.129688 0.0671875 0
0.117969 0.0679688 0
0.10625 0.06875 0
0.12875 0.05375 0
0.116875 0.054375 0
0.105 0.055 0
0.2 0.05 0
0.188125 0.050625 0
0.17625 0.05125 0
0.2 0.0375 0
0.187969 0.0379688 0
0.175938 0.0384375 0
0.2 0.025 0
0.187813 0.0253125 0
0.175625 0.025625 0
0.17625 0.05125 0
0.164375 0.051875 0
0.1525 0.0525 0
0.175938 0.0384375 0
0.163906 0.0389063 0
0.151875 0.039375 0
0.175625 0.025625 0
0.163438 0.0259375 0
0.15125 0.02625 0
0.2 0.025 0
0.187813 0.0253125 0
0.175625 0.025625 0
0.2 0.0125 0
0.187656 0.0126563 0
0.175313 0.0128125 0
0.2 0 0
0.1875 0 0
0.175 0 0
0.175625 0.025625 0
0.163438 0.0259375 0
0.15125 0.02625 0
0.175313 0.0128125 0
0.162969 0.0129688 0
0.150625 0.013125 0
0.175 0 0
0.1625 0 0
0.15 0 0
0.1525 0.0525 0
0.140625 0.053125 0
0.12875 0.05375 0
0.151875 0.039375 0
0.139844 0.0398438 0
0.127813 0.0403125 0
0.15125 0.02625 0
0.139063 0.0265625 0
0.126875 0.026875 0
0.12875 0.05375 0
0.116875 0.054375 0
0.105 0.055 0
0.127813 0.0403125 0
0.115781 0.0407813 0
0.10375 0.04125 0
0.126875 0.026875 0
0.114688 0.0271875 0
0.1025 0.0275 0
0.15125 0.02625 0
0.139063 0.0265625 0
0.126875 0.026875 0
0.150625 0.013125 0
0.138281 0.0132813 0
0.125938 0.0134375 0
0.15 0 0
0.1375 0 0
0.125 0 0
0.126875 0.026875 0
0.114688 0.0271875 0
0.1025 0.0275 0
0.125938 0.0134375 0
0.113594 0.0135938 0
0.10125 0.01375 0
0.125 0 0
0.1125 0 0
0.1 0 0
0.1 0.2 0
0.0875 0.2 0
0.075 0.2 0
0.10125 0.18875 0
0.0885937 0.188594 0
0.0759375 0.188438 0
0.1025 0.1775 0
0.0896875 0.177187 0
0.076875 0.176875 0
0.075 0.2 0
0.0625 0.2 0
0.05 0.2 0
0.0759375 0.188438 0
0.0632813 0.188281 0
0.050625 0.188125 0
0.076875 0.176875 0
0.0640625 0.176563 0
0.05125 0.17625 0
0.1025 0.1775 0
0.0896875 0.177187 0
0.076875 0.176875 0
0.10375 0.16625 0
0.0907813 0.165781 0
0.0778125 0.165313 0
0.105 0.155 0
0.091875 0.154375 0
0.07875 0.15375 0
0.076875 0.176875 0
0.0640625 0.176563 0
0.05125 0.17625 0
0.0778125 0.165313 0
0.0648438 0.164844 0
0.051875 0.164375 0
0.07875 0.15375 0
0.065625 0.153125 0
0.0525 0.1525 0
0.05 0.2 0
0.0375 0.2 0
0.025 0.2 0
0.050625 0.188125 0
0.0379688 0.187969 0
0.0253125 0.187813 0
0.05125 0.17625 0
0.0384375 0.175938 0
0.025625 0.175625 0
0.025 0.2 0
0.0125 0.2 0
0 0.2 0
0.0253125 0.187813 0
0.0126563 0.187656 0
0 0.1875 0
0.025625 0.175625 0
0.0128125 0.175313 0
0 0.175 0
0.05125 0.17625 0
0.0384375 0.175938 0
0.025625 0.175625 0
0.051875 0.164375 0
0.0389063 0.163906 0
0.0259375 0.163438 0
0.0525 0.1525 0
0.039375 0.151875 0
0.02625 0.15125 0
0.025625 0.175625 0
0.0128125 0.175313 0
0 0.175 0
0.0259375 0.163438 0
0.0129688 0.162969 0
0 0.1625 0
0.02625 0.15125 0
0.013125 0.150625 0
0 0.15 0
0.105 0.155 0
0.091875 0.154375 0
0.07875 0.15375 0
0.10625 0.14375 0
0.0929688 0.142969 0
0.0796875 0.142187 0
0.1075 0.1325 0
0.0940625 0.131562 0
0.080625 0.130625 0
0.07875 0.15375 0
0.065625 0.153125 0
0.0525 0.1525 0
0.0796875 0.142187 0
0.0664063 0.141406 0
0.053125 0.140625 0
0.080625 0.130625 0
0.0671875 0.129688 0
0.05375 0.12875 0
0.1075 0.1325 0
0.0940625 0.131562 0
0.080625 0.130625 0
0.10875 0.12125 0
0.0951563 0.120156 0
0.0815625 0.119063 0
0.11 0.11 0
0.09625 0.10875 0
0.0825 0.1075 0
0.080625 0.130625 0
0.0671875 0.129688 0
0.05375 0.12875 0
0.0815625 0.119063 0
0.0679688 0.117969 0
0.054375 0.116875 0
0.0825 0.1075 0
0.06875 0.10625 0
0.055 0.105 0
0.0525 0.1525 0
0.039375 0.151875 0
0.02625 0.15125 0
0.053125 0.140625 0
0.0398438 0.139844 0
0.0265625 0.139063 0
0.05375 0.12875 0
0.0403125 0.127813 0
0.026875 0.126875 0
0.02625 0.15125 0
0.013125 0.150625 0
0 0.15 0
0.0265625 0.139063 0
0.0132813 0.138281 0
0 0.1375 0
0.026875 0.126875 0
0.0134375 0.125938 0
0 0.125 0
0.05375 0.12875 0
0.0403125 0.127813 0
0.026875 0.126875 0
0.054375 0.116875 0
0.0407813 0.115781 0
0.0271875 0.114688 0
0.055 0.105 0
0.04125 0.10375 0
0.0275 0.1025 0
0.026875 0.126875 0
0.0134375 0.125938 0
0 0.125 0
0.0271875 0.114688 0
0.0135938 0.113594 0
0 0.1125 0
0.0275 0.1025 0
0.01375 0.10125 0
0 0.1 0
0.29 0.11 0
0.27875 0.10875 0
0.2675 0.1075 0
0.29125 0.09625 0
0.279844 0.0951563 0
0.268437 0.0940625 0
0.2925 0.0825 0
0.280938 0.0815625 0
0.269375 0.080625 0
0.2675 0.1075 0
0.25625 0.10625 0
0.245 0.105 0
0.268437 0.0940625 0
0.257031 0.0929688 0
0.245625 0.091875 0
0.269375 0.080625 0
0.257812 0.0796875 0
0.24625 0.07875 0
0.2925 0.0825 0
0.280938 0.0815625 0
0.269375 0.080625 0
0.29375 0.06875 0
0.282031 0.0679688 0
0.270313 0.0671875 0
0.295 0.055 0
0.283125 0.054375 0
0.27125 0.05375 0
0.269375 0.080625 0
0.257812 0.0796875 0
0.24625 0.07875 0
0.270313 0.0671875 0
0.258594 0.0664062 0
0.246875 0.065625 0
0.27125 0.05375 0
0.259375 0.053125 0
0.2475 0.0525 0
0.245 0.105 0
0.23375 0.10375 0
0.2225 0.1025 0
0.245625 0.091875 0
0.234219 0.0907813 0
0.222813 0.0896875 0
0.24625 0.07875 0
0.234687 0.0778125 0
0.223125 0.076875 0
0.2225 0.1025 0
0.21125 0.10125 0
0.2 0.1 0
0.222813 0.0896875 0
0.211406 0.0885937 0
0.2 0.0875 0
0.223125 0.076875 0
0.211563 0.0759375 0
0.2 0.075 0
0.24625 0.07875 0
0.234687 0.0778125 0
0.223125 0.076875 0
0.246875 0.065625 0
0.235156 0.0648438 0
0.223438 0.0640625 0
0.2475 0.0525 0
0.235625 0.051875 0
0.22375 0.05125 0
0.223125 0.076875 0
0.211563 0.0759375 0
0.2 0.075 0
0.223438 0.0640625 0
0.211719 0.0632813 0
0.2 0.0625 0
0.22375 0.05125 0
0.211875 0.050625 0
0.2 0.05 0
0.295 0.055 0
0.283125 0.054375 0
0.27125 0.05375 0
0.29625 0.04125 0
0.284219 0.0407813 0
0.272188 0.0403125 0
0.2975 0.0275 0
0.285312 0.0271875 0
0.273125 0.026875 0
0.27125 0.05375 0
0.259375 0.053125 0
0.2475 0.0525 0
0.272188 0.0403125 0
0.260156 0.0398438 0
0.248125 0.039375 0
0.273125 0.026875 0
0.260937 0.0265625 0
0.24875 0.02625 0
0.2975 0.0275 0
0.285312 0.0271875 0
0.273125 0.026875 0
0.29875 0.01375 0
0.286406 0.0135938 0
0.274062 0.0134375 0
0.3 0 0
0.2875 0 0
0.275 0 0
0.273125 0.026875 0
0.260937 0.0265625 0
0.24875 0.02625 0
0.274062 0.0134375 0
0.261719 0.0132813 0
0.249375 0.013125 0
0.275 0 0
0.2625 0 0
0.25 0 0
0.2475 0.0525 0
0.235625 0.051875 0
0.22375 0.05125 0
0.248125 0.039375 0
[...]
POINT_DATA 5760
SCALARS x_velo double 1
LOOKUP_TABLE default
0.25983 0.249941 0.243091 0.24852 0.23716 0.228401 0.231185 0.219243 0.209467 0.243091 0.237178 0.23294 0.228401 0.220977 0.21533 0.209467 0.201184 0.194626 0.231185 0.219243 0.209467 0.208576 0.19655 0.186421 0.181091 0.169497 0.159505 0.209467 0.201184 0.194626 0.186421 0.177774 0.170783 0.159505 0.15094 0.14392 0.23294 0.22915 0.226087 0.21533 0.210512 0.206729 0.194626 0.189154 0.1849 0.226087 0.223425 0.221297 0.206729 0.203676 0.201443 0.1849 0.181607 0.179358 0.194626 0.189154 0.1849 0.170783 0.165013 0.16055 0.14392 0.13817 0.133743 0.1849 0.181607 0.179358 0.16055 0.157206 0.155042 0.133743 0.130496 0.128495 0.181091 0.169497 0.159505 0.148635 0.137847 0.128488 0.109398 0.100339 0.0924591 0.159505 0.15094 0.14392 0.128488 0.12045 0.113846 0.0924591 0.0857079 0.0801697 0.109398 0.100339 0.0924591 0.0607974 0.0550045 0.0500239 0 0 0 0.0924591 0.0857079 0.0801697 0.0500239 0.0457555 0.0422945 0 0 0 0.14392 0.13817 0.133743 0.113846 0.108478 0.104393 0.0801697 0.0757146 0.072381 0.133743 0.130496 0.128495 0.104393 0.101457 0.0997174 0.072381 0.0700413 0.0687091 0.0801697 0.0757146 0.072381 0.0422945 0.0395173 0.037519 0 0 0 0.072381 0.0700413 0.0687091 0.037519 0.0361492 0.03547 0 0 0 0.38651 0.376175 0.360201 0.364527 0.352965 0.337937 0.335968 0.324679 0.311039 0.360201 0.341113 0.319631 0.337937 0.321257 0.303198 0.311039 0.296393 0.28095 0.335968 0.324679 0.311039 0.304697 0.294073 0.281738 0.269637 0.25996 0.248803 0.311039 0.296393 0.28095 0.281738 0.268653 0.25497 0.248803 0.236976 0.22462 0.319631 0.300363 0.283108 0.303198 0.286617 0.271346 0.28095 0.266431 0.252908 0.283108 0.26989 0.25983 0.271346 0.258702 0.24852 0.252908 0.241175 0.231185 0.28095 0.266431 0.252908 0.25497 0.241877 0.229489 0.22462 0.212605 0.201084 0.252908 0.241175 0.231185 0.229489 0.218367 0.208576 0.201084 0.190525 0.181091 0.269637 0.25996 0.248803 0.228069 0.219817 0.210143 0.174127 0.167981 0.16048 0.248803 0.236976 0.22462 0.210143 0.199748 0.188774 0.16048 0.15219 0.143278 0.174127 0.167981 0.16048 0.100531 0.0973179 0.0930166 0 0 0 0.16048 0.15219 0.143278 0.0930166 0.0880924 0.0825881 0 0 0 0.22462 0.212605 0.201084 0.188774 0.177921 0.167379 0.143278 0.134293 0.125451 0.201084 0.190525 0.181091 0.167379 0.157555 0.148635 0.125451 0.117089 0.109398 0.143278 0.134293 0.125451 0.0825881 0.0769271 0.0712596 0 0 0 0.125451 0.117089 0.109398 0.0712596 0.0658242 0.0607974 0 0 0 0.217875 0.242322 0.260413 0.217317 0.24153 0.259264 0.222192 0.243239 0.259086 0.260413 0.274186 0.28395 0.259264 0.272744 0.282359 0.259086 0.271078 0.279805 0.222192 0.243239 0.259086 0.231447 0.2473 0.25977 0.242122 0.251887 0.260182 0.259086 0.271078 0.279805 0.25977 0.269175 0.276308 0.260182 0.266385 0.271455 0.28395 0.291253 0.296033 0.282359 0.289495 0.294165 0.279805 0.286231 0.290426 0.296033 0.298921 0.299822 0.294165 0.296949 0.297814 0.290426 0.292889 0.293575 0.279805 0.286231 0.290426 0.276308 0.281466 0.284825 0.271455 0.274987 0.277257 0.290426 0.292889 0.293575 0.284825 0.286699 0.287106 0.277257 0.278379 0.278406 0.242122 0.251887 0.260182 0.252035 0.255564 0.259473 0.258747 0.257077 0.256766 0.260182 0.266385 0.271455 0.259473 0.262278 0.264988 0.256766 0.256298 0.256571 0.258747 0.257077 0.256766 0.261353 0.255268 0.251373 0.25983 0.249941 0.243091 0.256766 0.256298 0.256571 0.251373 0.248007 0.245932 0.243091 0.237178 0.23294 0.271455 0.274987 0.277257 0.264988 0.266678 0.267674 0.256571 0.256347 0.255983 0.277257 0.278379 0.278406 0.267674 0.267914 0.267475 0.255983 0.255263 0.254313 0.256571 0.256347 0.255983 0.245932 0.243872 0.24214 0.23294 0.22915 0.226087 0.255983 0.255263 0.254313 0.24214 0.240454 0.23892 0.226087 0.223425 0.221297 0.328681 0.338145 0.349368 0.36214 0.368689 0.375152 0.366265 0.369319 0.371513 0.349368 0.361355 0.37395 0.375152 0.380659 0.38489 0.371513 0.372027 0.370687 0.366265 0.369319 0.371513 0.34802 0.348916 0.348623 0.313884 0.314166 0.313168 0.371513 0.372027 0.370687 0.348623 0.346622 0.342835 0.313168 0.310527 0.306181 0.37395 0.384623 0.392202 0.38489 0.386007 0.383688 0.370687 0.36652 0.359418 0.392202 0.393043 0.38651 0.383688 0.376457 0.364527 0.359418 0.349203 0.335968 0.370687 0.36652 0.359418 0.342835 0.33675 0.328337 0.306181 0.299893 0.291628 0.359418 0.349203 0.335968 0.328337 0.317653 0.304697 0.291628 0.281532 0.269637 0.313884 0.314166 0.313168 0.263959 0.264978 0.264718 0.195619 0.197707 0.198738 0.313168 0.310527 0.306181 0.264718 0.26291 0.259469 0.198738 0.198451 0.196727 0.195619 0.197707 0.198738 0.107019 0.109244 0.110875 0 0 0 0.198738 0.198451 0.196727 0.110875 0.111719 0.111637 0 0 0 0.306181 0.299893 0.291628 0.259469 0.254256 0.247207 0.196727 0.193446 0.188512 0.291628 0.281532 0.269637 0.247207 0.238494 0.228069 0.188512 0.182075 0.174127 0.196727 0.193446 0.188512 0.111637 0.110553 0.108291 0 0 0 0.188512 0.182075 0.174127 0.108291 0.105005 0.100531 0 0 0 0.318794 0.321305 0.323427 0.322464 0.328307 0.333894 0.310714 0.318846 0.326756 0.323427 0.325017 0.326134 0.333894 0.339119 0.344037 0.326756 0.334289 0.341462 0.310714 0.318846 0.326756 0.284407 0.293965 0.303366 0.244767 0.25485 0.264935 0.326756 0.334289 0.341462 0.303366 0.312393 0.320983 0.264935 0.274786 0.284286 0.326134 0.326835 0.327264 0.344037 0.348667 0.353127 0.341462 0.348166 0.354475 0.327264 0.327704 0.328681 0.353127 0.357585 0.36214 0.354475 0.360448 0.366265 0.341462 0.348166 0.354475 0.320983 0.328904 0.336136 0.284286 0.293117 0.301187 0.354475 0.360448 0.366265 0.336136 0.34251 0.34802 0.301187 0.308135 0.313884 0.244767 0.25485 0.264935 0.193624 0.203046 0.212673 0.133586 0.141031 0.148811 0.264935 0.274786 0.284286 0.212673 0.22232 0.231883 0.148811 0.156834 0.165056 0.133586 0.141031 0.148811 0.0680323 0.0722452 0.0767346 0 0 0 0.148811 0.156834 0.165056 0.0767346 0.0814629 0.0864804 0 0 0 0.284286 0.293117 0.301187 0.231883 0.241036 0.249654 0.165056 0.173232 0.181252 0.301187 0.308135 0.313884 0.249654 0.257336 0.263959 0.181252 0.188772 0.195619 0.165056 0.173232 0.181252 0.0864804 0.091622 0.0968813 0 0 0 0.181252 0.188772 0.195619 0.0968813 0.102032 0.107019 0 0 0 0.0519006 0.0409533 0.030567 0.0628073 0.0516486 0.0409774 0.0898725 0.0786112 0.0676709 0.030567 0.0206019 0.0111377 0.0409774 0.0306383 0.0207129 0.0676709 0.0568313 0.0461634 0.0898725 0.0786112 0.0676709 0.129306 0.118407 0.107571 0.17606 0.166265 0.156299 0.0676709 0.0568313 0.0461634 0.107571 0.096521 0.0853041 0.156299 0.145809 0.134828 0.0111377 0.00240012 -0.00505871 0.0207129 0.0114277 0.00329337 0.0461634 0.0358408 0.0262705 -0.00505871 -0.0110925 -0.0149485 0.00329337 -0.00355195 -0.00842637 0.0262705 0.0174891 0.0099536 0.0461634 0.0358408 0.0262705 0.0853041 0.0740061 0.0628742 0.134828 0.123337 0.111452 0.0262705 0.0174891 0.0099536 0.0628742 0.051815 0.0409774 0.111452 0.0989607 0.0858172 0.17606 0.166265 0.156299 0.223788 0.216118 0.208086 0.266925 0.262251 0.257155 0.156299 0.145809 0.134828 0.208086 0.199344 0.189915 0.257155 0.251322 0.244793 0.266925 0.262251 0.257155 0.299644 0.298506 0.296954 0.318794 0.321305 0.323427 0.257155 0.251322 0.244793 0.296954 0.294762 0.291987 0.323427 0.325017 0.326134 0.134828 0.123337 0.111452 0.189915 0.179716 0.168779 0.244793 0.237487 0.229445 0.111452 0.0989607 0.0858172 0.168779 0.156943 0.144081 0.229445 0.220625 0.2113 0.244793 0.237487 0.229445 0.291987 0.288617 0.28475 0.326134 0.326835 0.327264 0.229445 0.220625 0.2113 0.28475 0.280521 0.275982 0.327264 0.327704 0.328681 0.323941 0.325028 0.325892 0.299442 0.297245 0.29479 0.262347 0.256957 0.251297 0.325892 0.326408 0.326641 0.29479 0.291858 0.288513 0.251297 0.245055 0.238282 0.262347 0.256957 0.251297 0.21613 0.208085 0.199825 0.166887 0.157011 0.147101 0.251297 0.245055 0.238282 0.199825 0.19101 0.181665 0.147101 0.136814 0.126177 0.326641 0.326653 0.326594 0.288513 0.28475 0.280675 0.238282 0.230897 0.222945 0.326594 0.326758 0.327704 0.280675 0.276416 0.272019 0.222945 0.214366 0.205421 0.238282 0.230897 0.222945 0.181665 0.171711 0.161176 0.126177 0.115178 0.103929 0.222945 0.214366 0.205421 0.161176 0.149888 0.137706 0.103929 0.0922078 0.0799557 0.166887 0.157011 0.147101 0.120349 0.109567 0.0989606 0.0827451 0.0716702 0.0609948 0.147101 0.136814 0.126177 0.0989606 0.0882641 0.077517 0.0609948 0.0505084 0.0402748 0.0827451 0.0716702 0.0609948 0.0588698 0.0478393 0.0373366 0.0519006 0.0409533 0.030567 0.0609948 0.0505084 0.0402748 0.0373366 0.0272108 0.0175399 0.030567 0.0206019 0.0111377 0.126177 0.115178 0.103929 0.077517 0.0668055 0.056378 0.0402748 0.0304655 0.0214889 0.103929 0.0922078 0.0799557 0.056378 0.0461333 0.036215 0.0214889 0.013377 0.00658546 0.0402748 0.0304655 0.0214889 0.0175399 0.00854816 0.000747441 0.0111377 0.00240012 -0.00505871 0.0214889 0.013377 0.00658546 0.000747441 -0.00572682 -0.0101903 -0.00505871 -0.0110925 -0.0149485 0 0 0 0.0760607 0.080198 0.0845169 0.147694 0.154703 0.161878 0 0 0 0.0845169 0.0889913 0.0936554 0.161878 0.169136 0.176421 0.147694 0.154703 0.161878 0.211376 0.219826 0.228276 0.263708 0.272351 0.280824 0.161878 0.169136 0.176421 0.228276 0.236557 0.244577 0.280824 0.288928 0.296579 0 0 0 0.0936554 0.0983478 0.103042 0.176421 0.183499 0.190262 0 0 0 0.103042 0.107537 0.111769 0.190262 0.196407 0.20178 0.176421 0.183499 0.190262 0.244577 0.25205 0.258879 0.296579 0.303515 0.309679 0.190262 0.196407 0.20178 0.258879 0.264734 0.269532 0.309679 0.314776 0.318759 0.263708 0.272351 0.280824 0.30245 0.310347 0.318023 0.326272 0.3328 0.339165 0.280824 0.288928 0.296579 0.318023 0.325313 0.332191 0.339165 0.345272 0.351159 0.326272 0.3328 0.339165 0.333908 0.338316 0.342614 0.323941 0.325028 0.325892 0.339165 0.345272 0.351159 0.342614 0.346734 0.350745 0.325892 0.326408 0.326641 0.296579 0.303515 0.309679 0.332191 0.338472 0.344156 0.351159 0.356748 0.362113 0.309679 0.314776 0.318759 0.344156 0.3491 0.353289 0.362113 0.367301 0.372464 0.351159 0.356748 0.362113 0.350745 0.354672 0.358625 0.326641 0.326653 0.326594 0.362113 0.367301 0.372464 0.358625 0.362739 0.367091 0.326594 0.326758 0.327704 0 0 0 0.111769 0.113343 0.114308 0.20178 0.202752 0.202712 0 0 0 0.114308 0.114528 0.113881 0.202712 0.201472 0.198942 0.20178 0.202752 0.202712 0.269532 0.269301 0.267893 0.318759 0.317884 0.315842 0.202712 0.201472 0.198942 0.267893 0.26512 0.260915 0.315842 0.31235 0.307358 0 0 0 0.113881 0.112335 0.109749 0.198942 0.195063 0.189768 0 0 0 0.109749 0.106276 0.101792 0.189768 0.183215 0.175417 0.198942 0.195063 0.189768 0.260915 0.255206 0.247946 0.307358 0.300708 0.292375 0.189768 0.183215 0.175417 0.247946 0.239306 0.229253 0.292375 0.282514 0.271158 0.318759 0.317884 0.315842 0.353289 0.35325 0.35207 0.372464 0.374948 0.376516 0.315842 0.31235 0.307358 0.35207 0.349307 0.344909 0.376516 0.376392 0.374435 0.372464 0.374948 0.376516 0.367091 0.373744 0.380243 0.327704 0.337928 0.350017 0.376516 0.376392 0.374435 0.380243 0.385711 0.389812 0.350017 0.362956 0.376534 0.307358 0.300708 0.292375 0.344909 0.338469 0.329975 0.374435 0.369815 0.362478 0.292375 0.282514 0.271158 0.329975 0.319537 0.307156 0.362478 0.352389 0.339644 0.374435 0.369815 0.362478 0.389812 0.390778 0.388347 0.376534 0.38816 0.39661 0.362478 0.352389 0.339644 0.388347 0.381191 0.369613 0.39661 0.398178 0.392308 0.269723 0.260707 0.254632 0.269857 0.264602 0.261419 0.265906 0.264991 0.265324 0.254632 0.249395 0.245759 0.261419 0.258669 0.257136 0.265324 0.265406 0.266157 0.265906 0.264991 0.265324 0.257883 0.262085 0.266561 0.24671 0.257051 0.26582 0.265324 0.265406 0.266157 0.266561 0.269844 0.272962 0.26582 0.272422 0.277825 0.245759 0.242462 0.239816 0.257136 0.255515 0.254153 0.266157 0.26632 0.266278 0.239816 0.237472 0.235574 0.254153 0.252746 0.251413 0.266278 0.265801 0.265021 0.266157 0.26632 0.266278 0.272962 0.274982 0.27625 0.277825 0.281627 0.284115 0.266278 0.265801 0.265021 0.27625 0.276694 0.276398 0.284115 0.285403 0.285544 0.24671 0.257051 0.26582 0.234834 0.251145 0.263983 0.224431 0.245787 0.261887 0.26582 0.272422 0.277825 0.263983 0.273697 0.281081 0.261887 0.27409 0.282985 0.224431 0.245787 0.261887 0.218433 0.242806 0.260665 0.217875 0.242322 0.260413 0.261887 0.27409 0.282985 0.260665 0.274251 0.283949 0.260413 0.274186 0.28395 0.277825 0.281627 0.284115 0.281081 0.286444 0.289967 0.282985 0.28955 0.293855 0.284115 0.285403 0.285544 0.289967 0.291967 0.29246 0.293855 0.296401 0.297145 0.282985 0.28955 0.293855 0.283949 0.291155 0.295879 0.28395 0.291253 0.296033 0.293855 0.296401 0.297145 0.295879 0.298705 0.299598 0.296033 0.298921 0.299822 0 0 0 0.101792 0.0985151 0.0943247 0.175417 0.169343 0.162163 0 0 0 0.0943247 0.0896005 0.0843895 0.162163 0.154336 0.14601 0.175417 0.169343 0.162163 0.229253 0.221306 0.212209 0.271158 0.261993 0.251613 0.162163 0.154336 0.14601 0.212209 0.202532 0.192396 0.251613 0.240693 0.229347 0 0 0 0.0843895 0.0790414 0.073685 0.14601 0.137635 0.129394 0 0 0 0.073685 0.0685311 0.0637301 0.129394 0.121578 0.114351 0.14601 0.137635 0.129394 0.192396 0.182384 0.172655 0.229347 0.218315 0.207726 0.129394 0.121578 0.114351 0.172655 0.163564 0.15527 0.207726 0.197993 0.189258 0.271158 0.261993 0.251613 0.307156 0.29713 0.28567 0.339644 0.328924 0.316134 0.251613 0.240693 0.229347 0.28567 0.27358 0.260993 0.316134 0.302459 0.288093 0.339644 0.328924 0.316134 0.369613 0.358462 0.344118 0.392308 0.382313 0.366766 0.316134 0.302459 0.288093 0.344118 0.328251 0.311093 0.366766 0.348176 0.327265 0.229347 0.218315 0.207726 0.260993 0.248942 0.237516 0.288093 0.274579 0.26197 0.207726 0.197993 0.189258 0.237516 0.227224 0.218109 0.26197 0.251012 0.241639 0.288093 0.274579 0.26197 0.311093 0.295369 0.280856 0.327265 0.308629 0.291981 0.26197 0.251012 0.241639 0.280856 0.268851 0.259165 0.291981 0.279323 0.269723 0 0 0 0.0637301 0.0581594 0.0533171 0.114351 0.105763 0.0982256 0 0 0 0.0533171 0.0491389 0.045716 0.0982256 0.0917252 0.0863478 0.114351 0.105763 0.0982256 0.15527 0.145122 0.136252 0.189258 0.178385 0.168954 0.0982256 0.0917252 0.0863478 0.136252 0.128594 0.122257 0.168954 0.160841 0.154155 0 0 0 0.045716 0.0429566 0.0409546 0.0863478 0.082 0.0787207 0 0 0 0.0409546 0.0395799 0.0388943 0.0787207 0.0764107 0.0750892 0.0863478 0.082 0.0787207 0.122257 0.117084 0.113127 0.154155 0.148662 0.144421 0.0787207 0.0764107 0.0750892 0.113127 0.110278 0.108585 0.144421 0.141307 0.139381 0.189258 0.178385 0.168954 0.218109 0.206806 0.197241 0.241639 0.230415 0.2212 0.168954 0.160841 0.154155 0.197241 0.189063 0.182436 0.2212 0.213402 0.207234 0.241639 0.230415 0.2212 0.259165 0.248531 0.240387 0.269723 0.260707 0.254632 0.2212 0.213402 0.207234 0.240387 0.233503 0.228325 0.254632 0.249395 0.245759 0.154155 0.148662 0.144421 0.182436 0.176956 0.172717 0.207234 0.202085 0.198092 0.144421 0.141307 0.139381 0.172717 0.169538 0.167478 0.198092 0.194992 0.192876 0.207234 0.202085 0.198092 0.228325 0.223895 0.22044 0.245759 0.242462 0.239816 0.198092 0.194992 0.192876 0.22044 0.217635 0.215575 0.239816 0.237472 0.235574 0.266573 0.271765 0.277408 0.253531 0.25962 0.266455 0.232063 0.238335 0.245579 0.277408 0.28361 0.290173 0.266455 0.274167 0.282631 0.245579 0.253951 0.263413 0.232063 0.238335 0.245579 0.203305 0.209101 0.215993 0.16873 0.17352 0.179408 0.245579 0.253951 0.263413 0.215993 0.224155 0.233643 0.179408 0.186567 0.195134 0.290173 0.29706 0.304012 0.282631 0.291831 0.301547 0.263413 0.273996 0.285535 0.304012 0.311375 0.318794 0.301547 0.311867 0.322464 0.285535 0.297881 0.310714 0.263413 0.273996 0.285535 0.233643 0.244567 0.256847 0.195134 0.205306 0.217137 0.285535 0.297881 0.310714 0.256847 0.270208 0.284407 0.217137 0.23033 0.244767 0.16873 0.17352 0.179408 0.129938 0.133411 0.137854 0.0882893 0.0903734 0.0931866 0.179408 0.186567 0.195134 0.137854 0.143412 0.150269 0.0931866 0.0968234 0.101457 0.0882893 0.0903734 0.0931866 0.044799 0.0456583 0.0469278 0 0 0 0.0931866 0.0968234 0.101457 0.0469278 0.0486274 0.0508831 0 0 0 0.195134 0.205306 0.217137 0.150269 0.158676 0.168817 0.101457 0.107324 0.114707 0.217137 0.23033 0.244767 0.168817 0.180434 0.193624 0.114707 0.123372 0.133586 0.101457 0.107324 0.114707 0.0508831 0.0538051 0.0577094 0 0 0 0.114707 0.123372 0.133586 0.0577094 0.0623458 0.0680323 0 0 0 0.233994 0.236006 0.238358 0.218302 0.220462 0.222953 0.198324 0.200384 0.202724 0.238358 0.241267 0.244719 0.222953 0.226008 0.229617 0.202724 0.20557 0.208915 0.198324 0.200384 0.202724 0.174216 0.176004 0.177993 0.146221 0.147643 0.149176 0.202724 0.20557 0.208915 0.177993 0.180388 0.183175 0.149176 0.150998 0.153078 0.244719 0.248858 0.253718 0.229617 0.233992 0.23919 0.208915 0.213007 0.217917 0.253718 0.259665 0.266573 0.23919 0.245719 0.253531 0.217917 0.224261 0.232063 0.208915 0.213007 0.217917 0.183175 0.18661 0.19076 0.153078 0.155654 0.158765 0.217917 0.224261 0.232063 0.19076 0.196299 0.203305 0.158765 0.163088 0.16873 0.146221 0.147643 0.149176 0.114597 0.115627 0.116685 0.079572 0.0802262 0.0808504 0.149176 0.150998 0.153078 0.116685 0.117923 0.119285 0.0808504 0.0815684 0.0823055 0.079572 0.0802262 0.0808504 0.0413296 0.0416448 0.0419076 0 0 0 0.0808504 0.0815684 0.0823055 0.0419076 0.0422154 0.0424819 0 0 0 0.153078 0.155654 0.158765 0.119285 0.120976 0.122985 0.0823055 0.0832269 0.0842561 0.158765 0.163088 0.16873 0.122985 0.125938 0.129938 0.0842561 0.0859182 0.0882893 0.0823055 0.0832269 0.0842561 0.0424819 0.0428388 0.0431625 0 0 0 0.0842561 0.0859182 0.0882893 0.0431625 0.0438019 0.044799 0 0 0 0.255383 0.250536 0.245009 0.255155 0.250657 0.245542 0.255997 0.252277 0.248066 0.245009 0.238595 0.231201 0.245542 0.239624 0.232813 0.248066 0.243228 0.237674 0.255997 0.252277 0.248066 0.257197 0.254557 0.251599 0.257769 0.256352 0.254807 0.248066 0.243228 0.237674 0.251599 0.248247 0.244424 0.254807 0.253129 0.251252 0.231201 0.222376 0.212002 0.232813 0.224679 0.215104 0.237674 0.231024 0.22317 0.212002 0.19961 0.1848 0.215104 0.203631 0.189862 0.22317 0.213698 0.202218 0.237674 0.231024 0.22317 0.244424 0.239815 0.234331 0.251252 0.248948 0.246145 0.22317 0.213698 0.202218 0.234331 0.22763 0.21934 0.246145 0.242608 0.237989 0.257769 0.256352 0.254807 0.256625 0.256404 0.256233 0.252773 0.253579 0.254582 0.254807 0.253129 0.251252 0.256233 0.25618 0.256192 0.254582 0.255915 0.257537 0.252773 0.253579 0.254582 0.245401 0.246964 0.248824 0.233994 0.236006 0.238358 0.254582 0.255915 0.257537 0.248824 0.251164 0.253955 0.238358 0.241267 0.244719 0.251252 0.248948 0.246145 0.256192 0.256133 0.255957 0.257537 0.259414 0.261523 0.246145 0.242608 0.237989 0.255957 0.255553 0.254614 0.261523 0.263906 0.266303 0.257537 0.259414 0.261523 0.253955 0.25726 0.261084 0.244719 0.248858 0.253718 0.261523 0.263906 0.266303 0.261084 0.265629 0.270699 0.253718 0.259665 0.266573 0.1848 0.173298 0.160275 0.189862 0.179107 0.166872 0.202218 0.193137 0.182702 0.160275 0.145914 0.129778 0.166872 0.153321 0.13801 0.182702 0.171047 0.15772 0.202218 0.193137 0.182702 0.21934 0.212618 0.204741 0.237989 0.234016 0.229153 0.182702 0.171047 0.15772 0.204741 0.195814 0.185393 0.229153 0.223485 0.216588 0.129778 0.112196 0.092636 0.13801 0.121225 0.102413 0.15772 0.142924 0.126087 0.092636 0.072557 0.0519006 0.102413 0.0829863 0.0628073 0.126087 0.108508 0.0898725 0.15772 0.142924 0.126087 0.185393 0.173581 0.159805 0.216588 0.208484 0.198634 0.126087 0.108508 0.0898725 0.159805 0.145215 0.129306 0.198634 0.188028 0.17606 0.237989 0.234016 0.229153 0.254614 0.253444 0.251698 0.266303 0.267741 0.268944 0.229153 0.223485 0.216588 0.251698 0.249448 0.246314 0.268944 0.269992 0.270559 0.266303 0.267741 0.268944 0.270699 0.274305 0.278027 0.266573 0.271765 0.277408 0.268944 0.269992 0.270559 0.278027 0.281953 0.285821 0.277408 0.28361 0.290173 0.216588 0.208484 0.198634 0.246314 0.24227 0.236846 0.270559 0.270602 0.269732 0.198634 0.188028 0.17606 0.236846 0.230902 0.223788 0.269732 0.268682 0.266925 0.270559 0.270602 0.269732 0.285821 0.289586 0.292938 0.290173 0.29706 0.304012 0.269732 0.268682 0.266925 0.292938 0.2964