# vtk DataFile Version 3.0
#This file was generated by the deal.II library on 2024/9/17 at 11:46:45
ASCII
DATASET UNSTRUCTURED_GRID

POINTS 5760 double
0.11 0.11 0
0.09625 0.10875 0
0.0825 0.1075 0
0.10875 0.09625 0
0.0951562 0.0951563 0
0.0815625 0.0940625 0
0.1075 0.0825 0
0.0940625 0.0815625 0
0.080625 0.080625 0
0.0825 0.1075 0
0.06875 0.10625 0
0.055 0.105 0
0.0815625 0.0940625 0
0.0679688 0.0929688 0
0.054375 0.091875 0
0.080625 0.080625 0
0.0671875 0.0796875 0
0.05375 0.07875 0
0.1075 0.0825 0
0.0940625 0.0815625 0
0.080625 0.080625 0
0.10625 0.06875 0
0.0929688 0.0679688 0
0.0796875 0.0671875 0
0.105 0.055 0
0.091875 0.054375 0
0.07875 0.05375 0
0.080625 0.080625 0
0.0671875 0.0796875 0
0.05375 0.07875 0
0.0796875 0.0671875 0
0.0664063 0.0664062 0
0.053125 0.065625 0
0.07875 0.05375 0
0.065625 0.053125 0
0.0525 0.0525 0
0.055 0.105 0
0.04125 0.10375 0
0.0275 0.1025 0
0.054375 0.091875 0
0.0407813 0.0907813 0
0.0271875 0.0896875 0
0.05375 0.07875 0
0.0403125 0.0778125 0
0.026875 0.076875 0
0.0275 0.1025 0
0.01375 0.10125 0
0 0.1 0
0.0271875 0.0896875 0
0.0135938 0.0885938 0
0 0.0875 0
0.026875 0.076875 0
0.0134375 0.0759375 0
0 0.075 0
0.05375 0.07875 0
0.0403125 0.0778125 0
0.026875 0.076875 0
0.053125 0.065625 0
0.0398438 0.0648438 0
0.0265625 0.0640625 0
0.0525 0.0525 0
0.039375 0.051875 0
0.02625 0.05125 0
0.026875 0.076875 0
0.0134375 0.0759375 0
0 0.075 0
0.0265625 0.0640625 0
0.0132813 0.0632813 0
0 0.0625 0
0.02625 0.05125 0
0.013125 0.050625 0
0 0.05 0
0.105 0.055 0
0.091875 0.054375 0
0.07875 0.05375 0
0.10375 0.04125 0
0.0907813 0.0407813 0
0.0778125 0.0403125 0
0.1025 0.0275 0
0.0896875 0.0271875 0
0.076875 0.026875 0
0.07875 0.05375 0
0.065625 0.053125 0
0.0525 0.0525 0
0.0778125 0.0403125 0
0.0648438 0.0398438 0
0.051875 0.039375 0
0.076875 0.026875 0
0.0640625 0.0265625 0
0.05125 0.02625 0
0.1025 0.0275 0
0.0896875 0.0271875 0
0.076875 0.026875 0
0.10125 0.01375 0
0.0885937 0.0135938 0
0.0759375 0.0134375 0
0.1 0 0
0.0875 0 0
0.075 0 0
0.076875 0.026875 0
0.0640625 0.0265625 0
0.05125 0.02625 0
0.0759375 0.0134375 0
0.0632812 0.0132813 0
0.050625 0.013125 0
0.075 0 0
0.0625 0 0
0.05 0 0
0.0525 0.0525 0
0.039375 0.051875 0
0.02625 0.05125 0
0.051875 0.039375 0
0.0389063 0.0389063 0
0.0259375 0.0384375 0
0.05125 0.02625 0
0.0384375 0.0259375 0
0.025625 0.025625 0
0.02625 0.05125 0
0.013125 0.050625 0
0 0.05 0
0.0259375 0.0384375 0
0.0129688 0.0379688 0
0 0.0375 0
0.025625 0.025625 0
0.0128125 0.0253125 0
0 0.025 0
0.05125 0.02625 0
0.0384375 0.0259375 0
0.025625 0.025625 0
0.050625 0.013125 0
0.0379688 0.0129688 0
0.0253125 0.0128125 0
0.05 0 0
0.0375 0 0
0.025 0 0
0.025625 0.025625 0
0.0128125 0.0253125 0
0 0.025 0
0.0253125 0.0128125 0
0.0126563 0.0126563 0
0 0.0125 0
0.025 0 0
0.0125 0 0
0 0 0
0.2 0.1 0
0.18875 0.10125 0
0.1775 0.1025 0
0.2 0.0875 0
0.188594 0.0885938 0
0.177187 0.0896875 0
0.2 0.075 0
0.188438 0.0759375 0
0.176875 0.076875 0
0.1775 0.1025 0
0.16625 0.10375 0
0.155 0.105 0
0.177187 0.0896875 0
0.165781 0.0907813 0
0.154375 0.091875 0
0.176875 0.076875 0
0.165313 0.0778125 0
0.15375 0.07875 0
0.2 0.075 0
0.188438 0.0759375 0
0.176875 0.076875 0
0.2 0.0625 0
0.188281 0.0632813 0
0.176563 0.0640625 0
0.2 0.05 0
0.188125 0.050625 0
0.17625 0.05125 0
0.176875 0.076875 0
0.165313 0.0778125 0
0.15375 0.07875 0
0.176563 0.0640625 0
0.164844 0.0648438 0
0.153125 0.065625 0
0.17625 0.05125 0
0.164375 0.051875 0
0.1525 0.0525 0
0.155 0.105 0
0.14375 0.10625 0
0.1325 0.1075 0
0.154375 0.091875 0
0.142969 0.0929688 0
0.131562 0.0940625 0
0.15375 0.07875 0
0.142187 0.0796875 0
0.130625 0.080625 0
0.1325 0.1075 0
0.12125 0.10875 0
0.11 0.11 0
0.131562 0.0940625 0
0.120156 0.0951563 0
0.10875 0.09625 0
0.130625 0.080625 0
0.119063 0.0815625 0
0.1075 0.0825 0
0.15375 0.07875 0
0.142187 0.0796875 0
0.130625 0.080625 0
0.153125 0.065625 0
0.141406 0.0664062 0
0.129688 0.0671875 0
0.1525 0.0525 0
0.140625 0.053125 0
0.12875 0.05375 0
0.130625 0.080625 0
0.119063 0.0815625 0
0.1075 0.0825 0
0.129688 0.0671875 0
0.117969 0.0679688 0
0.10625 0.06875 0
0.12875 0.05375 0
0.116875 0.054375 0
0.105 0.055 0
0.2 0.05 0
0.188125 0.050625 0
0.17625 0.05125 0
0.2 0.0375 0
0.187969 0.0379688 0
0.175938 0.0384375 0
0.2 0.025 0
0.187813 0.0253125 0
0.175625 0.025625 0
0.17625 0.05125 0
0.164375 0.051875 0
0.1525 0.0525 0
0.175938 0.0384375 0
0.163906 0.0389063 0
0.151875 0.039375 0
0.175625 0.025625 0
0.163438 0.0259375 0
0.15125 0.02625 0
0.2 0.025 0
0.187813 0.0253125 0
0.175625 0.025625 0
0.2 0.0125 0
0.187656 0.0126563 0
0.175313 0.0128125 0
0.2 0 0
0.1875 0 0
0.175 0 0
0.175625 0.025625 0
0.163438 0.0259375 0
0.15125 0.02625 0
0.175313 0.0128125 0
0.162969 0.0129688 0
0.150625 0.013125 0
0.175 0 0
0.1625 0 0
0.15 0 0
0.1525 0.0525 0
0.140625 0.053125 0
0.12875 0.05375 0
0.151875 0.039375 0
0.139844 0.0398438 0
0.127813 0.0403125 0
0.15125 0.02625 0
0.139063 0.0265625 0
0.126875 0.026875 0
0.12875 0.05375 0
0.116875 0.054375 0
0.105 0.055 0
0.127813 0.0403125 0
0.115781 0.0407813 0
0.10375 0.04125 0
0.126875 0.026875 0
0.114688 0.0271875 0
0.1025 0.0275 0
0.15125 0.02625 0
0.139063 0.0265625 0
0.126875 0.026875 0
0.150625 0.013125 0
0.138281 0.0132813 0
0.125938 0.0134375 0
0.15 0 0
0.1375 0 0
0.125 0 0
0.126875 0.026875 0
0.114688 0.0271875 0
0.1025 0.0275 0
0.125938 0.0134375 0
0.113594 0.0135938 0
0.10125 0.01375 0
0.125 0 0
0.1125 0 0
0.1 0 0
0.1 0.2 0
0.0875 0.2 0
0.075 0.2 0
0.10125 0.18875 0
0.0885937 0.188594 0
0.0759375 0.188438 0
0.1025 0.1775 0
0.0896875 0.177187 0
0.076875 0.176875 0
0.075 0.2 0
0.0625 0.2 0
0.05 0.2 0
0.0759375 0.188438 0
0.0632813 0.188281 0
0.050625 0.188125 0
0.076875 0.176875 0
0.0640625 0.176563 0
0.05125 0.17625 0
0.1025 0.1775 0
0.0896875 0.177187 0
0.076875 0.176875 0
0.10375 0.16625 0
0.0907813 0.165781 0
0.0778125 0.165313 0
0.105 0.155 0
0.091875 0.154375 0
0.07875 0.15375 0
0.076875 0.176875 0
0.0640625 0.176563 0
0.05125 0.17625 0
0.0778125 0.165313 0
0.0648438 0.164844 0
0.051875 0.164375 0
0.07875 0.15375 0
0.065625 0.153125 0
0.0525 0.1525 0
0.05 0.2 0
0.0375 0.2 0
0.025 0.2 0
0.050625 0.188125 0
0.0379688 0.187969 0
0.0253125 0.187813 0
0.05125 0.17625 0
0.0384375 0.175938 0
0.025625 0.175625 0
0.025 0.2 0
0.0125 0.2 0
0 0.2 0
0.0253125 0.187813 0
0.0126563 0.187656 0
0 0.1875 0
0.025625 0.175625 0
0.0128125 0.175313 0
0 0.175 0
0.05125 0.17625 0
0.0384375 0.175938 0
0.025625 0.175625 0
0.051875 0.164375 0
0.0389063 0.163906 0
0.0259375 0.163438 0
0.0525 0.1525 0
0.039375 0.151875 0
0.02625 0.15125 0
0.025625 0.175625 0
0.0128125 0.175313 0
0 0.175 0
0.0259375 0.163438 0
0.0129688 0.162969 0
0 0.1625 0
0.02625 0.15125 0
0.013125 0.150625 0
0 0.15 0
0.105 0.155 0
0.091875 0.154375 0
0.07875 0.15375 0
0.10625 0.14375 0
0.0929688 0.142969 0
0.0796875 0.142187 0
0.1075 0.1325 0
0.0940625 0.131562 0
0.080625 0.130625 0
0.07875 0.15375 0
0.065625 0.153125 0
0.0525 0.1525 0
0.0796875 0.142187 0
0.0664063 0.141406 0
0.053125 0.140625 0
0.080625 0.130625 0
0.0671875 0.129688 0
0.05375 0.12875 0
0.1075 0.1325 0
0.0940625 0.131562 0
0.080625 0.130625 0
0.10875 0.12125 0
0.0951563 0.120156 0
0.0815625 0.119063 0
0.11 0.11 0
0.09625 0.10875 0
0.0825 0.1075 0
0.080625 0.130625 0
0.0671875 0.129688 0
0.05375 0.12875 0
0.0815625 0.119063 0
0.0679688 0.117969 0
0.054375 0.116875 0
0.0825 0.1075 0
0.06875 0.10625 0
0.055 0.105 0
0.0525 0.1525 0
0.039375 0.151875 0
0.02625 0.15125 0
0.053125 0.140625 0
0.0398438 0.139844 0
0.0265625 0.139063 0
0.05375 0.12875 0
0.0403125 0.127813 0
0.026875 0.126875 0
0.02625 0.15125 0
0.013125 0.150625 0
0 0.15 0
0.0265625 0.139063 0
0.0132813 0.138281 0
0 0.1375 0
0.026875 0.126875 0
0.0134375 0.125938 0
0 0.125 0
0.05375 0.12875 0
0.0403125 0.127813 0
0.026875 0.126875 0
0.054375 0.116875 0
0.0407813 0.115781 0
0.0271875 0.114688 0
0.055 0.105 0
0.04125 0.10375 0
0.0275 0.1025 0
0.026875 0.126875 0
0.0134375 0.125938 0
0 0.125 0
0.0271875 0.114688 0
0.0135938 0.113594 0
0 0.1125 0
0.0275 0.1025 0
0.01375 0.10125 0
0 0.1 0
0.29 0.11 0
0.27875 0.10875 0
0.2675 0.1075 0
0.29125 0.09625 0
0.279844 0.0951563 0
0.268437 0.0940625 0
0.2925 0.0825 0
0.280938 0.0815625 0
0.269375 0.080625 0
0.2675 0.1075 0
0.25625 0.10625 0
0.245 0.105 0
0.268437 0.0940625 0
0.257031 0.0929688 0
0.245625 0.091875 0
0.269375 0.080625 0
0.257812 0.0796875 0
0.24625 0.07875 0
0.2925 0.0825 0
0.280938 0.0815625 0
0.269375 0.080625 0
0.29375 0.06875 0
0.282031 0.0679688 0
0.270313 0.0671875 0
0.295 0.055 0
0.283125 0.054375 0
0.27125 0.05375 0
0.269375 0.080625 0
0.257812 0.0796875 0
0.24625 0.07875 0
0.270313 0.0671875 0
0.258594 0.0664062 0
0.246875 0.065625 0
0.27125 0.05375 0
0.259375 0.053125 0
0.2475 0.0525 0
0.245 0.105 0
0.23375 0.10375 0
0.2225 0.1025 0
0.245625 0.091875 0
0.234219 0.0907813 0
0.222813 0.0896875 0
0.24625 0.07875 0
0.234687 0.0778125 0
0.223125 0.076875 0
0.2225 0.1025 0
0.21125 0.10125 0
0.2 0.1 0
0.222813 0.0896875 0
0.211406 0.0885937 0
0.2 0.0875 0
0.223125 0.076875 0
0.211563 0.0759375 0
0.2 0.075 0
0.24625 0.07875 0
0.234687 0.0778125 0
0.223125 0.076875 0
0.246875 0.065625 0
0.235156 0.0648438 0
0.223438 0.0640625 0
0.2475 0.0525 0
0.235625 0.051875 0
0.22375 0.05125 0
0.223125 0.076875 0
0.211563 0.0759375 0
0.2 0.075 0
0.223438 0.0640625 0
0.211719 0.0632813 0
0.2 0.0625 0
0.22375 0.05125 0
0.211875 0.050625 0
0.2 0.05 0
0.295 0.055 0
0.283125 0.054375 0
0.27125 0.05375 0
0.29625 0.04125 0
0.284219 0.0407813 0
0.272188 0.0403125 0
0.2975 0.0275 0
0.285312 0.0271875 0
0.273125 0.026875 0
0.27125 0.05375 0
0.259375 0.053125 0
0.2475 0.0525 0
0.272188 0.0403125 0
0.260156 0.0398438 0
0.248125 0.039375 0
0.273125 0.026875 0
0.260937 0.0265625 0
0.24875 0.02625 0
0.2975 0.0275 0
0.285312 0.0271875 0
0.273125 0.026875 0
0.29875 0.01375 0
0.286406 0.0135938 0
0.274062 0.0134375 0
0.3 0 0
0.2875 0 0
0.275 0 0
0.273125 0.026875 0
0.260937 0.0265625 0
0.24875 0.02625 0
0.274062 0.0134375 0
0.261719 0.0132813 0
0.249375 0.013125 0
0.275 0 0
0.2625 0 0
0.25 0 0
0.2475 0.0525 0
0.235625 0.051875 0
0.22375 0.05125 0
0.248125 0.039375 0
[...]
POINT_DATA 5760
SCALARS x_velo double 1
LOOKUP_TABLE default
0.259827 0.249939 0.24309 0.248518 0.237159 0.228401 0.231185 0.219243 0.209468 0.24309 0.237178 0.23294 0.228401 0.220977 0.21533 0.209468 0.201185 0.194626 0.231185 0.219243 0.209468 0.208578 0.196552 0.186421 0.181093 0.169499 0.159506 0.209468 0.201185 0.194626 0.186421 0.177774 0.170784 0.159506 0.150941 0.14392 0.23294 0.22915 0.226087 0.21533 0.210512 0.206729 0.194626 0.189154 0.184901 0.226087 0.223425 0.221297 0.206729 0.203676 0.201443 0.184901 0.181607 0.179358 0.194626 0.189154 0.184901 0.170784 0.165013 0.160551 0.14392 0.13817 0.133743 0.184901 0.181607 0.179358 0.160551 0.157206 0.155042 0.133743 0.130496 0.128495 0.181093 0.169499 0.159506 0.148638 0.13785 0.12849 0.109401 0.100341 0.0924606 0.159506 0.150941 0.14392 0.12849 0.120451 0.113847 0.0924606 0.0857089 0.0801703 0.109401 0.100341 0.0924606 0.0607997 0.0550061 0.050025 0 0 0 0.0924606 0.0857089 0.0801703 0.050025 0.0457562 0.0422949 0 0 0 0.14392 0.13817 0.133743 0.113847 0.108478 0.104393 0.0801703 0.075715 0.0723811 0.133743 0.130496 0.128495 0.104393 0.101457 0.0997174 0.0723811 0.0700413 0.0687091 0.0801703 0.075715 0.0723811 0.0422949 0.0395175 0.037519 0 0 0 0.0723811 0.0700413 0.0687091 0.037519 0.0361492 0.03547 0 0 0 0.386494 0.376162 0.36019 0.364526 0.352963 0.337934 0.335978 0.324685 0.311043 0.36019 0.341104 0.319624 0.337934 0.321253 0.303195 0.311043 0.296395 0.280952 0.335978 0.324685 0.311043 0.304716 0.294087 0.281748 0.269662 0.259979 0.248817 0.311043 0.296395 0.280952 0.281748 0.26866 0.254975 0.248817 0.236987 0.224629 0.319624 0.300357 0.283103 0.303195 0.286614 0.271343 0.280952 0.266432 0.252909 0.283103 0.269887 0.259827 0.271343 0.258701 0.248518 0.252909 0.241175 0.231185 0.280952 0.266432 0.252909 0.254975 0.241881 0.229492 0.224629 0.212611 0.201089 0.252909 0.241175 0.231185 0.229492 0.218369 0.208578 0.201089 0.190529 0.181093 0.269662 0.259979 0.248817 0.228098 0.21984 0.210161 0.174156 0.168004 0.160498 0.248817 0.236987 0.224629 0.210161 0.199762 0.188784 0.160498 0.152204 0.143289 0.174156 0.168004 0.160498 0.100551 0.0973343 0.0930294 0 0 0 0.160498 0.152204 0.143289 0.0930294 0.0881024 0.0825958 0 0 0 0.224629 0.212611 0.201089 0.188784 0.177929 0.167385 0.143289 0.134301 0.125457 0.201089 0.190529 0.181093 0.167385 0.15756 0.148638 0.125457 0.117093 0.109401 0.143289 0.134301 0.125457 0.0825958 0.0769329 0.0712639 0 0 0 0.125457 0.117093 0.109401 0.0712639 0.0658274 0.0607997 0 0 0 0.217873 0.242321 0.260412 0.217315 0.241528 0.259262 0.22219 0.243237 0.259084 0.260412 0.274185 0.283949 0.259262 0.272743 0.282358 0.259084 0.271077 0.279804 0.22219 0.243237 0.259084 0.231444 0.247298 0.259768 0.242119 0.251884 0.26018 0.259084 0.271077 0.279804 0.259768 0.269174 0.276307 0.26018 0.266384 0.271455 0.283949 0.291253 0.296033 0.282358 0.289494 0.294165 0.279804 0.286231 0.290426 0.296033 0.298921 0.299822 0.294165 0.296949 0.297814 0.290426 0.292889 0.293575 0.279804 0.286231 0.290426 0.276307 0.281465 0.284824 0.271455 0.274986 0.277257 0.290426 0.292889 0.293575 0.284824 0.286699 0.287106 0.277257 0.278379 0.278406 0.242119 0.251884 0.26018 0.252031 0.255562 0.259471 0.258743 0.257075 0.256764 0.26018 0.266384 0.271455 0.259471 0.262277 0.264987 0.256764 0.256297 0.25657 0.258743 0.257075 0.256764 0.261349 0.255266 0.251372 0.259827 0.249939 0.24309 0.256764 0.256297 0.25657 0.251372 0.248006 0.245932 0.24309 0.237178 0.23294 0.271455 0.274986 0.277257 0.264987 0.266678 0.267674 0.25657 0.256347 0.255983 0.277257 0.278379 0.278406 0.267674 0.267914 0.267475 0.255983 0.255263 0.254313 0.25657 0.256347 0.255983 0.245932 0.243871 0.24214 0.23294 0.22915 0.226087 0.255983 0.255263 0.254313 0.24214 0.240454 0.23892 0.226087 0.223425 0.221297 0.328587 0.338063 0.349298 0.362119 0.368671 0.375138 0.366311 0.369358 0.371546 0.349298 0.361297 0.373903 0.375138 0.380648 0.384883 0.371546 0.372055 0.370711 0.366311 0.369358 0.371546 0.348115 0.348996 0.34869 0.314014 0.314275 0.313258 0.371546 0.372055 0.370711 0.34869 0.346677 0.34288 0.313258 0.310602 0.306242 0.373903 0.384585 0.392174 0.384883 0.386002 0.383685 0.370711 0.366539 0.359434 0.392174 0.393021 0.386494 0.383685 0.376455 0.364526 0.359434 0.349215 0.335978 0.370711 0.366539 0.359434 0.34288 0.336787 0.328366 0.306242 0.299942 0.291668 0.359434 0.349215 0.335978 0.328366 0.317676 0.304716 0.291668 0.281564 0.269662 0.314014 0.314275 0.313258 0.264109 0.265104 0.264823 0.195763 0.197829 0.198841 0.313258 0.310602 0.306242 0.264823 0.262997 0.25954 0.198841 0.198537 0.196797 0.195763 0.197829 0.198841 0.107115 0.109327 0.110945 0 0 0 0.198841 0.198537 0.196797 0.110945 0.111778 0.111686 0 0 0 0.306242 0.299942 0.291668 0.25954 0.254314 0.247254 0.196797 0.193503 0.188558 0.291668 0.281564 0.269662 0.247254 0.238531 0.228098 0.188558 0.182112 0.174156 0.196797 0.193503 0.188558 0.111686 0.110593 0.108324 0 0 0 0.188558 0.182112 0.174156 0.108324 0.105032 0.100551 0 0 0 0.31885 0.321322 0.323409 0.322677 0.32847 0.334013 0.311055 0.319132 0.32699 0.323409 0.324972 0.326069 0.334013 0.339199 0.344086 0.32699 0.334478 0.341611 0.311055 0.319132 0.32699 0.284835 0.294337 0.303685 0.245233 0.255265 0.2653 0.32699 0.334478 0.341611 0.303685 0.312662 0.321208 0.2653 0.275103 0.284558 0.326069 0.326755 0.327174 0.344086 0.348691 0.35313 0.341611 0.348281 0.354562 0.327174 0.32761 0.328587 0.35313 0.357574 0.362119 0.354562 0.360512 0.366311 0.341611 0.348281 0.354562 0.321208 0.329088 0.336286 0.284558 0.293348 0.30138 0.354562 0.360512 0.366311 0.336286 0.34263 0.348115 0.30138 0.308294 0.314014 0.245233 0.255265 0.2653 0.194065 0.203448 0.213034 0.133934 0.141355 0.149109 0.2653 0.275103 0.284558 0.213034 0.222642 0.232166 0.149109 0.157106 0.165301 0.133934 0.141355 0.149109 0.0682254 0.0724287 0.0769067 0 0 0 0.149109 0.157106 0.165301 0.0769067 0.0816231 0.0866281 0 0 0 0.284558 0.293348 0.30138 0.232166 0.241282 0.249865 0.165301 0.17345 0.181445 0.30138 0.308294 0.314014 0.249865 0.257515 0.264109 0.181445 0.18894 0.195763 0.165301 0.17345 0.181445 0.0866281 0.0917569 0.0970032 0 0 0 0.181445 0.18894 0.195763 0.0970032 0.102141 0.107115 0 0 0 0.0515899 0.0407116 0.0303848 0.0624681 0.0513784 0.0407676 0.08948 0.0782847 0.0674034 0.0303848 0.0204716 0.0110513 0.0407676 0.0304818 0.0206023 0.0674034 0.0566177 0.0459978 0.08948 0.0782847 0.0674034 0.12887 0.118028 0.107245 0.17562 0.165868 0.155943 0.0674034 0.0566177 0.0459978 0.107245 0.0962462 0.0850765 0.155943 0.145495 0.134555 0.0110513 0.00235006 -0.00508116 0.0206023 0.0113555 0.00325135 0.0459978 0.0357172 0.0261818 -0.00508116 -0.0110949 -0.0149382 0.00325135 -0.00357112 -0.00842987 0.0261818 0.0174293 0.00991636 0.0459978 0.0357172 0.0261818 0.0850765 0.0738219 0.0627287 0.134555 0.123104 0.111258 0.0261818 0.0174293 0.00991636 0.0627287 0.0517039 0.0408964 0.111258 0.0988023 0.0856924 0.17562 0.165868 0.155943 0.223406 0.215758 0.20775 0.266658 0.261983 0.25689 0.155943 0.145495 0.134555 0.20775 0.199035 0.189635 0.25689 0.251066 0.244549 0.266658 0.261983 0.25689 0.299531 0.298372 0.296803 0.31885 0.321322 0.323409 0.25689 0.251066 0.244549 0.296803 0.294601 0.29182 0.323409 0.324972 0.326069 0.134555 0.123104 0.111258 0.189635 0.179467 0.16856 0.244549 0.237258 0.229235 0.111258 0.0988023 0.0856924 0.16856 0.156755 0.143925 0.229235 0.220437 0.211134 0.244549 0.237258 0.229235 0.29182 0.28845 0.284588 0.326069 0.326755 0.327174 0.229235 0.220437 0.211134 0.284588 0.280367 0.275839 0.327174 0.32761 0.328587 0.323938 0.324994 0.325832 0.299276 0.297066 0.294602 0.262037 0.256655 0.251005 0.325832 0.326328 0.326546 0.294602 0.291665 0.28832 0.251005 0.244777 0.238019 0.262037 0.256655 0.251005 0.215724 0.207707 0.199476 0.166444 0.156614 0.146748 0.251005 0.244777 0.238019 0.199476 0.190692 0.181378 0.146748 0.136504 0.125909 0.326546 0.326548 0.326484 0.28832 0.284562 0.280493 0.238019 0.230653 0.222723 0.326484 0.326647 0.327595 0.280493 0.276246 0.271862 0.222723 0.214166 0.205245 0.238019 0.230653 0.222723 0.181378 0.171455 0.160952 0.125909 0.114949 0.103737 0.222723 0.214166 0.205245 0.160952 0.149696 0.137545 0.103737 0.0920509 0.0798313 0.166444 0.156614 0.146748 0.119926 0.109202 0.0986496 0.0823719 0.071363 0.0607458 0.146748 0.136504 0.125909 0.0986496 0.0880032 0.0773019 0.0607458 0.0503116 0.040124 0.0823719 0.071363 0.0607458 0.0585443 0.0475824 0.0371392 0.0515899 0.0407116 0.0303848 0.0607458 0.0503116 0.040124 0.0371392 0.0270655 0.017439 0.0303848 0.0204716 0.0110513 0.125909 0.114949 0.103737 0.0773019 0.0666319 0.0562408 0.040124 0.0303543 0.0214101 0.103737 0.0920509 0.0798313 0.0562408 0.0460282 0.0361379 0.0214101 0.0133246 0.00655327 0.040124 0.0303543 0.0214101 0.017439 0.00848418 0.000711992 0.0110513 0.00235006 -0.00508116 0.0214101 0.0133246 0.00655327 0.000711992 -0.005741 -0.0101903 -0.00508116 -0.0110949 -0.0149382 0 0 0 0.0762657 0.0803921 0.0846986 0.148055 0.155037 0.162185 0 0 0 0.0846986 0.0891602 0.0938111 0.162185 0.169415 0.176673 0.148055 0.155037 0.162185 0.211819 0.220229 0.228637 0.264162 0.272755 0.281179 0.162185 0.169415 0.176673 0.228637 0.236879 0.24486 0.281179 0.289238 0.296846 0 0 0 0.0938111 0.0984901 0.10317 0.176673 0.183724 0.190461 0 0 0 0.10317 0.107653 0.111872 0.190461 0.196581 0.20193 0.176673 0.183724 0.190461 0.24486 0.252297 0.259092 0.296846 0.303743 0.309871 0.190461 0.196581 0.20193 0.259092 0.264916 0.269686 0.309871 0.314937 0.318892 0.264162 0.272755 0.281179 0.302854 0.310699 0.318325 0.326578 0.333057 0.339378 0.281179 0.289238 0.296846 0.318325 0.32557 0.332407 0.339378 0.345445 0.351298 0.326578 0.333057 0.339378 0.334073 0.33844 0.342701 0.323938 0.324994 0.325832 0.339378 0.345445 0.351298 0.342701 0.346791 0.350775 0.325832 0.326328 0.326546 0.296846 0.303743 0.309871 0.332407 0.338652 0.344305 0.351298 0.356857 0.362197 0.309871 0.314937 0.318892 0.344305 0.349222 0.353387 0.362197 0.367365 0.372512 0.351298 0.356857 0.362197 0.350775 0.354681 0.358617 0.326546 0.326548 0.326484 0.362197 0.367365 0.372512 0.358617 0.36272 0.367063 0.326484 0.326647 0.327595 0 0 0 0.111872 0.113432 0.114384 0.20193 0.20288 0.202821 0 0 0 0.114384 0.114593 0.113936 0.202821 0.201564 0.199019 0.20193 0.20288 0.202821 0.269686 0.269432 0.268004 0.318892 0.317997 0.315937 0.202821 0.201564 0.199019 0.268004 0.265213 0.260992 0.315937 0.31243 0.307424 0 0 0 0.113936 0.112381 0.109787 0.199019 0.195126 0.18982 0 0 0 0.109787 0.106307 0.101817 0.18982 0.183258 0.175451 0.199019 0.195126 0.18982 0.260992 0.255269 0.247998 0.307424 0.300763 0.29242 0.18982 0.183258 0.175451 0.247998 0.239349 0.229287 0.29242 0.28255 0.271188 0.318892 0.317997 0.315937 0.353387 0.353334 0.352142 0.372512 0.374989 0.376552 0.315937 0.31243 0.307424 0.352142 0.349368 0.34496 0.376552 0.376424 0.374462 0.372512 0.374989 0.376552 0.367063 0.373722 0.380227 0.327595 0.337833 0.349936 0.376552 0.376424 0.374462 0.380227 0.3857 0.389804 0.349936 0.362889 0.37648 0.307424 0.300763 0.29242 0.34496 0.338511 0.330009 0.374462 0.369839 0.362498 0.29242 0.28255 0.271188 0.330009 0.319565 0.307178 0.362498 0.352405 0.339657 0.374462 0.369839 0.362498 0.389804 0.390774 0.388345 0.37648 0.388118 0.396579 0.362498 0.352405 0.339657 0.388345 0.38119 0.369614 0.396579 0.398156 0.392292 0.269722 0.260706 0.254632 0.269855 0.264601 0.261418 0.265904 0.26499 0.265323 0.254632 0.249394 0.245759 0.261418 0.258669 0.257136 0.265323 0.265405 0.266157 0.265904 0.26499 0.265323 0.25788 0.262083 0.26656 0.246708 0.257049 0.265819 0.265323 0.265405 0.266157 0.26656 0.269843 0.272962 0.265819 0.272421 0.277825 0.245759 0.242462 0.239816 0.257136 0.255515 0.254153 0.266157 0.26632 0.266278 0.239816 0.237472 0.235574 0.254153 0.252746 0.251413 0.266278 0.265801 0.265021 0.266157 0.26632 0.266278 0.272962 0.274982 0.27625 0.277825 0.281626 0.284115 0.266278 0.265801 0.265021 0.27625 0.276694 0.276398 0.284115 0.285403 0.285544 0.246708 0.257049 0.265819 0.234832 0.251144 0.263981 0.224429 0.245785 0.261885 0.265819 0.272421 0.277825 0.263981 0.273696 0.28108 0.261885 0.274089 0.282984 0.224429 0.245785 0.261885 0.218431 0.242804 0.260664 0.217873 0.242321 0.260412 0.261885 0.274089 0.282984 0.260664 0.27425 0.283948 0.260412 0.274185 0.283949 0.277825 0.281626 0.284115 0.28108 0.286444 0.289967 0.282984 0.28955 0.293854 0.284115 0.285403 0.285544 0.289967 0.291967 0.29246 0.293854 0.296401 0.297145 0.282984 0.28955 0.293854 0.283948 0.291154 0.295879 0.283949 0.291253 0.296033 0.293854 0.296401 0.297145 0.295879 0.298705 0.299598 0.296033 0.298921 0.299822 0 0 0 0.101817 0.098535 0.0943407 0.175451 0.169371 0.162185 0 0 0 0.0943407 0.0896131 0.0843994 0.162185 0.154353 0.146024 0.175451 0.169371 0.162185 0.229287 0.221334 0.212231 0.271188 0.262017 0.251632 0.162185 0.154353 0.146024 0.212231 0.20255 0.19241 0.251632 0.240707 0.229358 0 0 0 0.0843994 0.0790491 0.0736909 0.146024 0.137646 0.129402 0 0 0 0.0736909 0.0685356 0.0637333 0.129402 0.121584 0.114356 0.146024 0.137646 0.129402 0.19241 0.182395 0.172663 0.229358 0.218324 0.207733 0.129402 0.121584 0.114356 0.172663 0.163571 0.155274 0.207733 0.197998 0.189262 0.271188 0.262017 0.251632 0.307178 0.297147 0.285683 0.339657 0.328934 0.316141 0.251632 0.240707 0.229358 0.285683 0.27359 0.261001 0.316141 0.302465 0.288097 0.339657 0.328934 0.316141 0.369614 0.358462 0.344117 0.392292 0.3823 0.366756 0.316141 0.302465 0.288097 0.344117 0.32825 0.311092 0.366756 0.348168 0.327259 0.229358 0.218324 0.207733 0.261001 0.248948 0.237521 0.288097 0.274582 0.261973 0.207733 0.197998 0.189262 0.237521 0.227228 0.218112 0.261973 0.251013 0.24164 0.288097 0.274582 0.261973 0.311092 0.295369 0.280856 0.327259 0.308624 0.291978 0.261973 0.251013 0.24164 0.280856 0.268851 0.259165 0.291978 0.27932 0.269722 0 0 0 0.0637333 0.0581617 0.0533186 0.114356 0.105767 0.0982279 0 0 0 0.0533186 0.0491399 0.0457165 0.0982279 0.0917267 0.0863487 0.114356 0.105767 0.0982279 0.155274 0.145126 0.136254 0.189262 0.178388 0.168956 0.0982279 0.0917267 0.0863487 0.136254 0.128596 0.122258 0.168956 0.160843 0.154156 0 0 0 0.0457165 0.0429568 0.0409547 0.0863487 0.0820005 0.0787209 0 0 0 0.0409547 0.0395799 0.0388943 0.0787209 0.0764107 0.0750892 0.0863487 0.0820005 0.0787209 0.122258 0.117085 0.113127 0.154156 0.148663 0.144421 0.0787209 0.0764107 0.0750892 0.113127 0.110278 0.108585 0.144421 0.141307 0.139381 0.189262 0.178388 0.168956 0.218112 0.206808 0.197242 0.24164 0.230416 0.221201 0.168956 0.160843 0.154156 0.197242 0.189064 0.182436 0.221201 0.213402 0.207234 0.24164 0.230416 0.221201 0.259165 0.248531 0.240387 0.269722 0.260706 0.254632 0.221201 0.213402 0.207234 0.240387 0.233503 0.228325 0.254632 0.249394 0.245759 0.154156 0.148663 0.144421 0.182436 0.176957 0.172718 0.207234 0.202085 0.198092 0.144421 0.141307 0.139381 0.172718 0.169538 0.167478 0.198092 0.194992 0.192876 0.207234 0.202085 0.198092 0.228325 0.223895 0.22044 0.245759 0.242462 0.239816 0.198092 0.194992 0.192876 0.22044 0.217635 0.215575 0.239816 0.237472 0.235574 0.267265 0.272378 0.277937 0.254494 0.260506 0.267254 0.233181 0.239387 0.246552 0.277937 0.28405 0.290523 0.267254 0.274867 0.283228 0.246552 0.25483 0.264187 0.233181 0.239387 0.246552 0.204451 0.210198 0.217026 0.169782 0.174542 0.180387 0.246552 0.25483 0.264187 0.217026 0.225109 0.234503 0.180387 0.187485 0.195979 0.290523 0.297324 0.304197 0.283228 0.292323 0.301939 0.264187 0.27466 0.286087 0.304197 0.311489 0.31885 0.301939 0.312164 0.322677 0.286087 0.298323 0.311055 0.264187 0.27466 0.286087 0.234503 0.245323 0.257495 0.195979 0.206066 0.217803 0.286087 0.298323 0.311055 0.257495 0.270745 0.284835 0.217803 0.230896 0.245233 0.169782 0.174542 0.180387 0.130798 0.134255 0.138672 0.0888864 0.0909642 0.0937649 0.180387 0.187485 0.195979 0.138672 0.144191 0.150998 0.0937649 0.0973801 0.101985 0.0888864 0.0909642 0.0937649 0.0450997 0.0459564 0.0472213 0 0 0 0.0937649 0.0973801 0.101985 0.0472213 0.0489118 0.0511556 0 0 0 0.195979 0.206066 0.217803 0.150998 0.159343 0.169416 0.101985 0.107815 0.115156 0.217803 0.230896 0.245233 0.169416 0.180955 0.194065 0.115156 0.123773 0.133934 0.101985 0.107815 0.115156 0.0511556 0.0540617 0.0579485 0 0 0 0.115156 0.123773 0.133934 0.0579485 0.0625633 0.0682254 0 0 0 0.234704 0.23681 0.239234 0.21907 0.221354 0.22395 0.199038 0.201244 0.203711 0.239234 0.242186 0.245651 0.22395 0.227079 0.230733 0.203711 0.206658 0.210077 0.199038 0.201244 0.203711 0.174804 0.176744 0.17887 0.146652 0.148217 0.149882 0.203711 0.206658 0.210077 0.17887 0.181382 0.184262 0.149882 0.151821 0.154 0.245651 0.249773 0.254586 0.230733 0.23512 0.240297 0.210077 0.214211 0.219129 0.254586 0.260457 0.267265 0.240297 0.24677 0.254494 0.219129 0.225445 0.233181 0.210077 0.214211 0.219129 0.184262 0.187762 0.191945 0.154 0.156651 0.159811 0.219129 0.225445 0.233181 0.191945 0.197483 0.204451 0.159811 0.164154 0.169782 0.146652 0.148217 0.149882 0.114879 0.116028 0.117199 0.0797361 0.0804735 0.0811778 0.149882 0.151821 0.154 0.117199 0.118538 0.119989 0.0811778 0.0819694 0.0827718 0.0797361 0.0804735 0.0811778 0.0414069 0.0417635 0.0420668 0 0 0 0.0811778 0.0819694 0.0827718 0.0420668 0.0424122 0.0427122 0 0 0 0.154 0.156651 0.159811 0.119989 0.121752 0.123811 0.0827718 0.0837477 0.0848178 0.159811 0.164154 0.169782 0.123811 0.126793 0.130798 0.0848178 0.0865058 0.0888864 0.0827718 0.0837477 0.0848178 0.0427122 0.0430974 0.0434424 0 0 0 0.0848178 0.0865058 0.0888864 0.0434424 0.0440958 0.0450997 0 0 0 0.253099 0.248176 0.242609 0.253042 0.248476 0.243323 0.254232 0.250452 0.246204 0.242609 0.236196 0.228844 0.243323 0.237404 0.230624 0.246204 0.241352 0.235811 0.254232 0.250452 0.246204 0.255902 0.253215 0.25022 0.257 0.255553 0.253978 0.246204 0.241352 0.235811 0.25022 0.246843 0.243009 0.253978 0.252269 0.250362 0.228844 0.220108 0.209867 0.230624 0.222562 0.213097 0.235811 0.229203 0.221422 0.209867 0.197653 0.183064 0.213097 0.201778 0.188202 0.221422 0.212059 0.200722 0.235811 0.229203 0.221422 0.243009 0.238408 0.232951 0.250362 0.248034 0.245217 0.221422 0.212059 0.200722 0.232951 0.226305 0.218098 0.245217 0.24168 0.237081 0.257 0.255553 0.253978 0.256372 0.256143 0.255957 0.252963 0.253792 0.254803 0.253978 0.252269 0.250362 0.255957 0.255876 0.255849 0.254803 0.256122 0.257712 0.252963 0.253792 0.254803 0.245919 0.247541 0.249439 0.234704 0.23681 0.239234 0.254803 0.256122 0.257712 0.249439 0.251789 0.254567 0.239234 0.242186 0.245651 0.250362 0.248034 0.245217 0.255849 0.255747 0.255523 0.257712 0.259539 0.261585 0.245217 0.24168 0.237081 0.255523 0.255076 0.254104 0.261585 0.263895 0.266219 0.257712 0.259539 0.261585 0.254567 0.257832 0.261592 0.245651 0.249773 0.254586 0.261585 0.263895 0.266219 0.261592 0.266056 0.27103 0.254586 0.260457 0.267265 0.183064 0.171727 0.158884 0.188202 0.177593 0.165521 0.200722 0.191754 0.181448 0.158884 0.144711 0.128768 0.165521 0.152141 0.137009 0.181448 0.16993 0.15675 0.200722 0.191754 0.181448 0.218098 0.211446 0.203654 0.237081 0.233133 0.228308 0.181448 0.16993 0.15675 0.203654 0.194821 0.184506 0.228308 0.222687 0.215849 0.128768 0.111378 0.0920047 0.137009 0.120401 0.101766 0.15675 0.142105 0.12542 0.0920047 0.0720962 0.0515899 0.101766 0.0825018 0.0624681 0.12542 0.107984 0.08948 0.15675 0.142105 0.12542 0.184506 0.172804 0.159146 0.215849 0.207812 0.198038 0.12542 0.107984 0.08948 0.159146 0.14467 0.12887 0.198038 0.18751 0.17562 0.237081 0.233133 0.228308 0.254104 0.252918 0.251166 0.266219 0.267609 0.26877 0.228308 0.222687 0.215849 0.251166 0.248917 0.245797 0.26877 0.26978 0.270317 0.266219 0.267609 0.26877 0.27103 0.274566 0.278219 0.267265 0.272378 0.277937 0.26877 0.26978 0.270317 0.278219 0.282076 0.285879 0.277937 0.28405 0.290523 0.215849 0.207812 0.198038 0.245797 0.241774 0.236383 0.270317 0.270339 0.26946 0.198038 0.18751 0.17562 0.236383 0.230476 0.223406 0.26946 0.268408 0.266658 0.270317 0.270339 0.26946 0.285879 0.289587 0.292892 0.290523 0.297324 0.304197 0.26946 0.268408 0.266658 0.292892 0.2963