# vtk DataFile Version 3.0
#This file was generated by the deal.II library on 2024/9/17 at 11:45:55
ASCII
DATASET UNSTRUCTURED_GRID

POINTS 5760 double
0.11 0.11 0
0.09625 0.10875 0
0.0825 0.1075 0
0.10875 0.09625 0
0.0951562 0.0951563 0
0.0815625 0.0940625 0
0.1075 0.0825 0
0.0940625 0.0815625 0
0.080625 0.080625 0
0.0825 0.1075 0
0.06875 0.10625 0
0.055 0.105 0
0.0815625 0.0940625 0
0.0679688 0.0929688 0
0.054375 0.091875 0
0.080625 0.080625 0
0.0671875 0.0796875 0
0.05375 0.07875 0
0.1075 0.0825 0
0.0940625 0.0815625 0
0.080625 0.080625 0
0.10625 0.06875 0
0.0929688 0.0679688 0
0.0796875 0.0671875 0
0.105 0.055 0
0.091875 0.054375 0
0.07875 0.05375 0
0.080625 0.080625 0
0.0671875 0.0796875 0
0.05375 0.07875 0
0.0796875 0.0671875 0
0.0664063 0.0664062 0
0.053125 0.065625 0
0.07875 0.05375 0
0.065625 0.053125 0
0.0525 0.0525 0
0.055 0.105 0
0.04125 0.10375 0
0.0275 0.1025 0
0.054375 0.091875 0
0.0407813 0.0907813 0
0.0271875 0.0896875 0
0.05375 0.07875 0
0.0403125 0.0778125 0
0.026875 0.076875 0
0.0275 0.1025 0
0.01375 0.10125 0
0 0.1 0
0.0271875 0.0896875 0
0.0135938 0.0885938 0
0 0.0875 0
0.026875 0.076875 0
0.0134375 0.0759375 0
0 0.075 0
0.05375 0.07875 0
0.0403125 0.0778125 0
0.026875 0.076875 0
0.053125 0.065625 0
0.0398438 0.0648438 0
0.0265625 0.0640625 0
0.0525 0.0525 0
0.039375 0.051875 0
0.02625 0.05125 0
0.026875 0.076875 0
0.0134375 0.0759375 0
0 0.075 0
0.0265625 0.0640625 0
0.0132813 0.0632813 0
0 0.0625 0
0.02625 0.05125 0
0.013125 0.050625 0
0 0.05 0
0.105 0.055 0
0.091875 0.054375 0
0.07875 0.05375 0
0.10375 0.04125 0
0.0907813 0.0407813 0
0.0778125 0.0403125 0
0.1025 0.0275 0
0.0896875 0.0271875 0
0.076875 0.026875 0
0.07875 0.05375 0
0.065625 0.053125 0
0.0525 0.0525 0
0.0778125 0.0403125 0
0.0648438 0.0398438 0
0.051875 0.039375 0
0.076875 0.026875 0
0.0640625 0.0265625 0
0.05125 0.02625 0
0.1025 0.0275 0
0.0896875 0.0271875 0
0.076875 0.026875 0
0.10125 0.01375 0
0.0885937 0.0135938 0
0.0759375 0.0134375 0
0.1 0 0
0.0875 0 0
0.075 0 0
0.076875 0.026875 0
0.0640625 0.0265625 0
0.05125 0.02625 0
0.0759375 0.0134375 0
0.0632812 0.0132813 0
0.050625 0.013125 0
0.075 0 0
0.0625 0 0
0.05 0 0
0.0525 0.0525 0
0.039375 0.051875 0
0.02625 0.05125 0
0.051875 0.039375 0
0.0389063 0.0389063 0
0.0259375 0.0384375 0
0.05125 0.02625 0
0.0384375 0.0259375 0
0.025625 0.025625 0
0.02625 0.05125 0
0.013125 0.050625 0
0 0.05 0
0.0259375 0.0384375 0
0.0129688 0.0379688 0
0 0.0375 0
0.025625 0.025625 0
0.0128125 0.0253125 0
0 0.025 0
0.05125 0.02625 0
0.0384375 0.0259375 0
0.025625 0.025625 0
0.050625 0.013125 0
0.0379688 0.0129688 0
0.0253125 0.0128125 0
0.05 0 0
0.0375 0 0
0.025 0 0
0.025625 0.025625 0
0.0128125 0.0253125 0
0 0.025 0
0.0253125 0.0128125 0
0.0126563 0.0126563 0
0 0.0125 0
0.025 0 0
0.0125 0 0
0 0 0
0.2 0.1 0
0.18875 0.10125 0
0.1775 0.1025 0
0.2 0.0875 0
0.188594 0.0885938 0
0.177187 0.0896875 0
0.2 0.075 0
0.188438 0.0759375 0
0.176875 0.076875 0
0.1775 0.1025 0
0.16625 0.10375 0
0.155 0.105 0
0.177187 0.0896875 0
0.165781 0.0907813 0
0.154375 0.091875 0
0.176875 0.076875 0
0.165313 0.0778125 0
0.15375 0.07875 0
0.2 0.075 0
0.188438 0.0759375 0
0.176875 0.076875 0
0.2 0.0625 0
0.188281 0.0632813 0
0.176563 0.0640625 0
0.2 0.05 0
0.188125 0.050625 0
0.17625 0.05125 0
0.176875 0.076875 0
0.165313 0.0778125 0
0.15375 0.07875 0
0.176563 0.0640625 0
0.164844 0.0648438 0
0.153125 0.065625 0
0.17625 0.05125 0
0.164375 0.051875 0
0.1525 0.0525 0
0.155 0.105 0
0.14375 0.10625 0
0.1325 0.1075 0
0.154375 0.091875 0
0.142969 0.0929688 0
0.131562 0.0940625 0
0.15375 0.07875 0
0.142187 0.0796875 0
0.130625 0.080625 0
0.1325 0.1075 0
0.12125 0.10875 0
0.11 0.11 0
0.131562 0.0940625 0
0.120156 0.0951563 0
0.10875 0.09625 0
0.130625 0.080625 0
0.119063 0.0815625 0
0.1075 0.0825 0
0.15375 0.07875 0
0.142187 0.0796875 0
0.130625 0.080625 0
0.153125 0.065625 0
0.141406 0.0664062 0
0.129688 0.0671875 0
0.1525 0.0525 0
0.140625 0.053125 0
0.12875 0.05375 0
0.130625 0.080625 0
0.119063 0.0815625 0
0.1075 0.0825 0
0.129688 0.0671875 0
0.117969 0.0679688 0
0.10625 0.06875 0
0.12875 0.05375 0
0.116875 0.054375 0
0.105 0.055 0
0.2 0.05 0
0.188125 0.050625 0
0.17625 0.05125 0
0.2 0.0375 0
0.187969 0.0379688 0
0.175938 0.0384375 0
0.2 0.025 0
0.187813 0.0253125 0
0.175625 0.025625 0
0.17625 0.05125 0
0.164375 0.051875 0
0.1525 0.0525 0
0.175938 0.0384375 0
0.163906 0.0389063 0
0.151875 0.039375 0
0.175625 0.025625 0
0.163438 0.0259375 0
0.15125 0.02625 0
0.2 0.025 0
0.187813 0.0253125 0
0.175625 0.025625 0
0.2 0.0125 0
0.187656 0.0126563 0
0.175313 0.0128125 0
0.2 0 0
0.1875 0 0
0.175 0 0
0.175625 0.025625 0
0.163438 0.0259375 0
0.15125 0.02625 0
0.175313 0.0128125 0
0.162969 0.0129688 0
0.150625 0.013125 0
0.175 0 0
0.1625 0 0
0.15 0 0
0.1525 0.0525 0
0.140625 0.053125 0
0.12875 0.05375 0
0.151875 0.039375 0
0.139844 0.0398438 0
0.127813 0.0403125 0
0.15125 0.02625 0
0.139063 0.0265625 0
0.126875 0.026875 0
0.12875 0.05375 0
0.116875 0.054375 0
0.105 0.055 0
0.127813 0.0403125 0
0.115781 0.0407813 0
0.10375 0.04125 0
0.126875 0.026875 0
0.114688 0.0271875 0
0.1025 0.0275 0
0.15125 0.02625 0
0.139063 0.0265625 0
0.126875 0.026875 0
0.150625 0.013125 0
0.138281 0.0132813 0
0.125938 0.0134375 0
0.15 0 0
0.1375 0 0
0.125 0 0
0.126875 0.026875 0
0.114688 0.0271875 0
0.1025 0.0275 0
0.125938 0.0134375 0
0.113594 0.0135938 0
0.10125 0.01375 0
0.125 0 0
0.1125 0 0
0.1 0 0
0.1 0.2 0
0.0875 0.2 0
0.075 0.2 0
0.10125 0.18875 0
0.0885937 0.188594 0
0.0759375 0.188438 0
0.1025 0.1775 0
0.0896875 0.177187 0
0.076875 0.176875 0
0.075 0.2 0
0.0625 0.2 0
0.05 0.2 0
0.0759375 0.188438 0
0.0632813 0.188281 0
0.050625 0.188125 0
0.076875 0.176875 0
0.0640625 0.176563 0
0.05125 0.17625 0
0.1025 0.1775 0
0.0896875 0.177187 0
0.076875 0.176875 0
0.10375 0.16625 0
0.0907813 0.165781 0
0.0778125 0.165313 0
0.105 0.155 0
0.091875 0.154375 0
0.07875 0.15375 0
0.076875 0.176875 0
0.0640625 0.176563 0
0.05125 0.17625 0
0.0778125 0.165313 0
0.0648438 0.164844 0
0.051875 0.164375 0
0.07875 0.15375 0
0.065625 0.153125 0
0.0525 0.1525 0
0.05 0.2 0
0.0375 0.2 0
0.025 0.2 0
0.050625 0.188125 0
0.0379688 0.187969 0
0.0253125 0.187813 0
0.05125 0.17625 0
0.0384375 0.175938 0
0.025625 0.175625 0
0.025 0.2 0
0.0125 0.2 0
0 0.2 0
0.0253125 0.187813 0
0.0126563 0.187656 0
0 0.1875 0
0.025625 0.175625 0
0.0128125 0.175313 0
0 0.175 0
0.05125 0.17625 0
0.0384375 0.175938 0
0.025625 0.175625 0
0.051875 0.164375 0
0.0389063 0.163906 0
0.0259375 0.163438 0
0.0525 0.1525 0
0.039375 0.151875 0
0.02625 0.15125 0
0.025625 0.175625 0
0.0128125 0.175313 0
0 0.175 0
0.0259375 0.163438 0
0.0129688 0.162969 0
0 0.1625 0
0.02625 0.15125 0
0.013125 0.150625 0
0 0.15 0
0.105 0.155 0
0.091875 0.154375 0
0.07875 0.15375 0
0.10625 0.14375 0
0.0929688 0.142969 0
0.0796875 0.142187 0
0.1075 0.1325 0
0.0940625 0.131562 0
0.080625 0.130625 0
0.07875 0.15375 0
0.065625 0.153125 0
0.0525 0.1525 0
0.0796875 0.142187 0
0.0664063 0.141406 0
0.053125 0.140625 0
0.080625 0.130625 0
0.0671875 0.129688 0
0.05375 0.12875 0
0.1075 0.1325 0
0.0940625 0.131562 0
0.080625 0.130625 0
0.10875 0.12125 0
0.0951563 0.120156 0
0.0815625 0.119063 0
0.11 0.11 0
0.09625 0.10875 0
0.0825 0.1075 0
0.080625 0.130625 0
0.0671875 0.129688 0
0.05375 0.12875 0
0.0815625 0.119063 0
0.0679688 0.117969 0
0.054375 0.116875 0
0.0825 0.1075 0
0.06875 0.10625 0
0.055 0.105 0
0.0525 0.1525 0
0.039375 0.151875 0
0.02625 0.15125 0
0.053125 0.140625 0
0.0398438 0.139844 0
0.0265625 0.139063 0
0.05375 0.12875 0
0.0403125 0.127813 0
0.026875 0.126875 0
0.02625 0.15125 0
0.013125 0.150625 0
0 0.15 0
0.0265625 0.139063 0
0.0132813 0.138281 0
0 0.1375 0
0.026875 0.126875 0
0.0134375 0.125938 0
0 0.125 0
0.05375 0.12875 0
0.0403125 0.127813 0
0.026875 0.126875 0
0.054375 0.116875 0
0.0407813 0.115781 0
0.0271875 0.114688 0
0.055 0.105 0
0.04125 0.10375 0
0.0275 0.1025 0
0.026875 0.126875 0
0.0134375 0.125938 0
0 0.125 0
0.0271875 0.114688 0
0.0135938 0.113594 0
0 0.1125 0
0.0275 0.1025 0
0.01375 0.10125 0
0 0.1 0
0.29 0.11 0
0.27875 0.10875 0
0.2675 0.1075 0
0.29125 0.09625 0
0.279844 0.0951563 0
0.268437 0.0940625 0
0.2925 0.0825 0
0.280938 0.0815625 0
0.269375 0.080625 0
0.2675 0.1075 0
0.25625 0.10625 0
0.245 0.105 0
0.268437 0.0940625 0
0.257031 0.0929688 0
0.245625 0.091875 0
0.269375 0.080625 0
0.257812 0.0796875 0
0.24625 0.07875 0
0.2925 0.0825 0
0.280938 0.0815625 0
0.269375 0.080625 0
0.29375 0.06875 0
0.282031 0.0679688 0
0.270313 0.0671875 0
0.295 0.055 0
0.283125 0.054375 0
0.27125 0.05375 0
0.269375 0.080625 0
0.257812 0.0796875 0
0.24625 0.07875 0
0.270313 0.0671875 0
0.258594 0.0664062 0
0.246875 0.065625 0
0.27125 0.05375 0
0.259375 0.053125 0
0.2475 0.0525 0
0.245 0.105 0
0.23375 0.10375 0
0.2225 0.1025 0
0.245625 0.091875 0
0.234219 0.0907813 0
0.222813 0.0896875 0
0.24625 0.07875 0
0.234687 0.0778125 0
0.223125 0.076875 0
0.2225 0.1025 0
0.21125 0.10125 0
0.2 0.1 0
0.222813 0.0896875 0
0.211406 0.0885937 0
0.2 0.0875 0
0.223125 0.076875 0
0.211563 0.0759375 0
0.2 0.075 0
0.24625 0.07875 0
0.234687 0.0778125 0
0.223125 0.076875 0
0.246875 0.065625 0
0.235156 0.0648438 0
0.223438 0.0640625 0
0.2475 0.0525 0
0.235625 0.051875 0
0.22375 0.05125 0
0.223125 0.076875 0
0.211563 0.0759375 0
0.2 0.075 0
0.223438 0.0640625 0
0.211719 0.0632813 0
0.2 0.0625 0
0.22375 0.05125 0
0.211875 0.050625 0
0.2 0.05 0
0.295 0.055 0
0.283125 0.054375 0
0.27125 0.05375 0
0.29625 0.04125 0
0.284219 0.0407813 0
0.272188 0.0403125 0
0.2975 0.0275 0
0.285312 0.0271875 0
0.273125 0.026875 0
0.27125 0.05375 0
0.259375 0.053125 0
0.2475 0.0525 0
0.272188 0.0403125 0
0.260156 0.0398438 0
0.248125 0.039375 0
0.273125 0.026875 0
0.260937 0.0265625 0
0.24875 0.02625 0
0.2975 0.0275 0
0.285312 0.0271875 0
0.273125 0.026875 0
0.29875 0.01375 0
0.286406 0.0135938 0
0.274062 0.0134375 0
0.3 0 0
0.2875 0 0
0.275 0 0
0.273125 0.026875 0
0.260937 0.0265625 0
0.24875 0.02625 0
0.274062 0.0134375 0
0.261719 0.0132813 0
0.249375 0.013125 0
0.275 0 0
0.2625 0 0
0.25 0 0
0.2475 0.0525 0
0.235625 0.051875 0
0.22375 0.05125 0
0.248125 0.039375 0
[...]
POINT_DATA 5760
SCALARS x_velo double 1
LOOKUP_TABLE default
0.259828 0.24994 0.243091 0.248519 0.237159 0.228401 0.231185 0.219243 0.209467 0.243091 0.237178 0.23294 0.228401 0.220977 0.21533 0.209467 0.201184 0.194626 0.231185 0.219243 0.209467 0.208577 0.196551 0.186421 0.181092 0.169498 0.159505 0.209467 0.201184 0.194626 0.186421 0.177774 0.170783 0.159505 0.150941 0.14392 0.23294 0.22915 0.226087 0.21533 0.210512 0.206729 0.194626 0.189154 0.1849 0.226087 0.223425 0.221297 0.206729 0.203676 0.201443 0.1849 0.181607 0.179358 0.194626 0.189154 0.1849 0.170783 0.165013 0.160551 0.14392 0.13817 0.133743 0.1849 0.181607 0.179358 0.160551 0.157206 0.155042 0.133743 0.130496 0.128495 0.181092 0.169498 0.159505 0.148637 0.137849 0.128489 0.1094 0.10034 0.09246 0.159505 0.150941 0.14392 0.128489 0.120451 0.113847 0.09246 0.0857085 0.0801701 0.1094 0.10034 0.09246 0.0607988 0.0550055 0.0500246 0 0 0 0.09246 0.0857085 0.0801701 0.0500246 0.045756 0.0422948 0 0 0 0.14392 0.13817 0.133743 0.113847 0.108478 0.104393 0.0801701 0.0757148 0.0723811 0.133743 0.130496 0.128495 0.104393 0.101457 0.0997174 0.0723811 0.0700413 0.0687091 0.0801701 0.0757148 0.0723811 0.0422948 0.0395174 0.037519 0 0 0 0.0723811 0.0700413 0.0687091 0.037519 0.0361492 0.03547 0 0 0 0.386501 0.376167 0.360194 0.364527 0.352964 0.337935 0.335974 0.324683 0.311041 0.360194 0.341108 0.319627 0.337935 0.321255 0.303196 0.311041 0.296394 0.280951 0.335974 0.324683 0.311041 0.304708 0.294081 0.281744 0.269651 0.259971 0.248811 0.311041 0.296394 0.280951 0.281744 0.268657 0.254973 0.248811 0.236983 0.224625 0.319627 0.30036 0.283105 0.303196 0.286615 0.271344 0.280951 0.266432 0.252908 0.283105 0.269888 0.259828 0.271344 0.258701 0.248519 0.252908 0.241175 0.231185 0.280951 0.266432 0.252908 0.254973 0.241879 0.22949 0.224625 0.212609 0.201087 0.252908 0.241175 0.231185 0.22949 0.218368 0.208577 0.201087 0.190527 0.181092 0.269651 0.259971 0.248811 0.228086 0.21983 0.210154 0.174143 0.167994 0.16049 0.248811 0.236983 0.224625 0.210154 0.199756 0.18878 0.16049 0.152198 0.143284 0.174143 0.167994 0.16049 0.100542 0.0973272 0.0930239 0 0 0 0.16049 0.152198 0.143284 0.0930239 0.0880981 0.0825925 0 0 0 0.224625 0.212609 0.201087 0.18878 0.177926 0.167382 0.143284 0.134298 0.125454 0.201087 0.190527 0.181092 0.167382 0.157558 0.148637 0.125454 0.117092 0.1094 0.143284 0.134298 0.125454 0.0825925 0.0769305 0.0712622 0 0 0 0.125454 0.117092 0.1094 0.0712622 0.0658261 0.0607988 0 0 0 0.217873 0.242321 0.260413 0.217316 0.241529 0.259263 0.222191 0.243238 0.259085 0.260413 0.274186 0.28395 0.259263 0.272743 0.282358 0.259085 0.271078 0.279804 0.222191 0.243238 0.259085 0.231445 0.247299 0.259769 0.24212 0.251885 0.260181 0.259085 0.271078 0.279804 0.259769 0.269174 0.276308 0.260181 0.266384 0.271455 0.28395 0.291253 0.296033 0.282358 0.289495 0.294165 0.279804 0.286231 0.290426 0.296033 0.298921 0.299822 0.294165 0.296949 0.297814 0.290426 0.292889 0.293575 0.279804 0.286231 0.290426 0.276308 0.281465 0.284824 0.271455 0.274987 0.277257 0.290426 0.292889 0.293575 0.284824 0.286699 0.287106 0.277257 0.278379 0.278406 0.24212 0.251885 0.260181 0.252032 0.255563 0.259472 0.258744 0.257076 0.256765 0.260181 0.266384 0.271455 0.259472 0.262278 0.264987 0.256765 0.256297 0.25657 0.258744 0.257076 0.256765 0.261351 0.255267 0.251372 0.259828 0.24994 0.243091 0.256765 0.256297 0.25657 0.251372 0.248006 0.245932 0.243091 0.237178 0.23294 0.271455 0.274987 0.277257 0.264987 0.266678 0.267674 0.25657 0.256347 0.255983 0.277257 0.278379 0.278406 0.267674 0.267914 0.267475 0.255983 0.255263 0.254313 0.25657 0.256347 0.255983 0.245932 0.243872 0.24214 0.23294 0.22915 0.226087 0.255983 0.255263 0.254313 0.24214 0.240454 0.23892 0.226087 0.223425 0.221297 0.328627 0.338098 0.349328 0.362129 0.36868 0.375145 0.366293 0.369343 0.371533 0.349328 0.361322 0.373923 0.375145 0.380653 0.384887 0.371533 0.372044 0.370702 0.366293 0.369343 0.371533 0.348076 0.348963 0.348663 0.31396 0.31423 0.31322 0.371533 0.372044 0.370702 0.348663 0.346654 0.342862 0.31322 0.310571 0.306216 0.373923 0.384601 0.392186 0.384887 0.386005 0.383686 0.370702 0.366532 0.359428 0.392186 0.39303 0.386501 0.383686 0.376456 0.364527 0.359428 0.34921 0.335974 0.370702 0.366532 0.359428 0.342862 0.336772 0.328354 0.306216 0.299922 0.291651 0.359428 0.34921 0.335974 0.328354 0.317666 0.304708 0.291651 0.28155 0.269651 0.31396 0.31423 0.31322 0.264046 0.26505 0.264779 0.195702 0.197777 0.198797 0.31322 0.310571 0.306216 0.264779 0.26296 0.25951 0.198797 0.1985 0.196767 0.195702 0.197777 0.198797 0.107075 0.109291 0.110915 0 0 0 0.198797 0.1985 0.196767 0.110915 0.111753 0.111665 0 0 0 0.306216 0.299922 0.291651 0.25951 0.254289 0.247234 0.196767 0.193478 0.188538 0.291651 0.28155 0.269651 0.247234 0.238515 0.228086 0.188538 0.182096 0.174143 0.196767 0.193478 0.188538 0.111665 0.110576 0.10831 0 0 0 0.188538 0.182096 0.174143 0.10831 0.10502 0.100542 0 0 0 0.318838 0.321324 0.323424 0.322599 0.328411 0.333971 0.310921 0.31902 0.326899 0.323424 0.324996 0.3261 0.333971 0.339172 0.34407 0.326899 0.334405 0.341553 0.310921 0.31902 0.326899 0.284662 0.294187 0.303557 0.24504 0.255094 0.26515 0.326899 0.334405 0.341553 0.303557 0.312554 0.321117 0.26515 0.274972 0.284446 0.3261 0.326791 0.327213 0.34407 0.348685 0.353131 0.341553 0.348237 0.354529 0.327213 0.32765 0.328627 0.353131 0.35758 0.362129 0.354529 0.360488 0.366293 0.341553 0.348237 0.354529 0.321117 0.329014 0.336225 0.284446 0.293253 0.3013 0.354529 0.360488 0.366293 0.336225 0.342582 0.348076 0.3013 0.308228 0.31396 0.24504 0.255094 0.26515 0.193881 0.20328 0.212884 0.133787 0.141219 0.148984 0.26515 0.274972 0.284446 0.212884 0.222508 0.232048 0.148984 0.156992 0.165199 0.133787 0.141219 0.148984 0.0681438 0.0723514 0.0768343 0 0 0 0.148984 0.156992 0.165199 0.0768343 0.0815558 0.0865661 0 0 0 0.284446 0.293253 0.3013 0.232048 0.241179 0.249777 0.165199 0.173359 0.181364 0.3013 0.308228 0.31396 0.249777 0.25744 0.264046 0.181364 0.188869 0.195702 0.165199 0.173359 0.181364 0.0865661 0.0917002 0.0969519 0 0 0 0.181364 0.188869 0.195702 0.0969519 0.102095 0.107075 0 0 0 0.0517015 0.0407981 0.0304497 0.0625924 0.0514771 0.040844 0.0896299 0.0784092 0.0675052 0.0304497 0.0205179 0.0110819 0.040844 0.0305387 0.0206425 0.0675052 0.056699 0.046061 0.0896299 0.0784092 0.0675052 0.129043 0.118178 0.107374 0.175801 0.16603 0.156087 0.0675052 0.056699 0.046061 0.107374 0.0963543 0.085166 0.156087 0.145622 0.134664 0.0110819 0.00236779 -0.00507322 0.0206425 0.0113818 0.00326679 0.046061 0.0357645 0.026216 -0.00507322 -0.0110941 -0.014942 0.00326679 -0.00356397 -0.00842845 0.026216 0.0174526 0.00993105 0.046061 0.0357645 0.026216 0.085166 0.0738944 0.062786 0.134664 0.123197 0.111335 0.026216 0.0174526 0.00993105 0.062786 0.0517478 0.0409286 0.111335 0.0988656 0.0857424 0.175801 0.16603 0.156087 0.223567 0.215909 0.207889 0.266776 0.262099 0.257003 0.156087 0.145622 0.134664 0.207889 0.199162 0.189749 0.257003 0.251173 0.244651 0.266776 0.262099 0.257003 0.299588 0.298435 0.296871 0.318838 0.321324 0.323424 0.257003 0.251173 0.244651 0.296871 0.294671 0.291892 0.323424 0.324996 0.3261 0.134664 0.123197 0.111335 0.189749 0.179568 0.168648 0.244651 0.237352 0.229321 0.111335 0.0988656 0.0857424 0.168648 0.156831 0.143988 0.229321 0.220514 0.211202 0.244651 0.237352 0.229321 0.291892 0.288521 0.284656 0.3261 0.326791 0.327213 0.229321 0.220514 0.211202 0.284656 0.280431 0.275899 0.327213 0.32765 0.328627 0.323952 0.325019 0.325866 0.299358 0.297151 0.294689 0.262177 0.256789 0.251133 0.325866 0.326369 0.326592 0.294689 0.291752 0.288406 0.251133 0.244898 0.238132 0.262177 0.256789 0.251133 0.2159 0.20787 0.199625 0.16663 0.15678 0.146895 0.251133 0.244898 0.238132 0.199625 0.190827 0.181499 0.146895 0.136633 0.126021 0.326592 0.326597 0.326534 0.288406 0.284644 0.280572 0.238132 0.230757 0.222817 0.326534 0.326696 0.327643 0.280572 0.276319 0.27193 0.222817 0.214251 0.20532 0.238132 0.230757 0.222817 0.181499 0.171563 0.161046 0.126021 0.115044 0.103817 0.222817 0.214251 0.20532 0.161046 0.149776 0.137613 0.103817 0.0921165 0.0798834 0.16663 0.15678 0.146895 0.120098 0.109351 0.0987763 0.0825167 0.0714826 0.0608432 0.146895 0.136633 0.126021 0.0987763 0.0881099 0.0773902 0.0608432 0.0503891 0.040184 0.0825167 0.0714826 0.0608432 0.0586644 0.0476772 0.0372121 0.0517015 0.0407981 0.0304497 0.0608432 0.0503891 0.040184 0.0372121 0.0271195 0.0174768 0.0304497 0.0205179 0.0110819 0.126021 0.115044 0.103817 0.0773902 0.0667036 0.0562979 0.040184 0.0303992 0.0214426 0.103817 0.0921165 0.0798834 0.0562979 0.0460722 0.0361704 0.0214426 0.0133467 0.00656732 0.040184 0.0303992 0.0214426 0.0174768 0.0085086 0.000725988 0.0110819 0.00236779 -0.00507322 0.0214426 0.0133467 0.00656732 0.000725988 -0.00573487 -0.0101895 -0.00507322 -0.0110941 -0.014942 0 0 0 0.0761756 0.080307 0.0846192 0.147897 0.154892 0.162051 0 0 0 0.0846192 0.0890865 0.0937432 0.162051 0.169294 0.176563 0.147897 0.154892 0.162051 0.211627 0.220055 0.228481 0.263969 0.272583 0.281029 0.162051 0.169294 0.176563 0.228481 0.23674 0.244738 0.281029 0.289107 0.296733 0 0 0 0.0937432 0.098428 0.103114 0.176563 0.183626 0.190374 0 0 0 0.103114 0.107602 0.111827 0.190374 0.196505 0.201864 0.176563 0.183626 0.190374 0.244738 0.252191 0.259 0.296733 0.303646 0.309789 0.190374 0.196505 0.201864 0.259 0.264838 0.269619 0.309789 0.314869 0.318835 0.263969 0.272583 0.281029 0.302686 0.310553 0.3182 0.326456 0.332955 0.339294 0.281029 0.289107 0.296733 0.3182 0.325464 0.332318 0.339294 0.345377 0.351244 0.326456 0.332955 0.339294 0.334014 0.338397 0.342673 0.323952 0.325019 0.325866 0.339294 0.345377 0.351244 0.342673 0.346774 0.350769 0.325866 0.326369 0.326592 0.296733 0.303646 0.309789 0.332318 0.338578 0.344244 0.351244 0.356815 0.362165 0.309789 0.314869 0.318835 0.344244 0.349171 0.353347 0.362165 0.36734 0.372494 0.351244 0.356815 0.362165 0.350769 0.354682 0.358624 0.326592 0.326597 0.326534 0.362165 0.36734 0.372494 0.358624 0.362731 0.367077 0.326534 0.326696 0.327643 0 0 0 0.111827 0.113393 0.114351 0.201864 0.202824 0.202773 0 0 0 0.114351 0.114565 0.113911 0.202773 0.201524 0.198985 0.201864 0.202824 0.202773 0.269619 0.269375 0.267956 0.318835 0.317949 0.315896 0.202773 0.201524 0.198985 0.267956 0.265172 0.260958 0.315896 0.312395 0.307396 0 0 0 0.113911 0.112361 0.10977 0.198985 0.195098 0.189797 0 0 0 0.10977 0.106293 0.101806 0.189797 0.183239 0.175436 0.198985 0.195098 0.189797 0.260958 0.255241 0.247975 0.307396 0.300739 0.292401 0.189797 0.183239 0.175436 0.247975 0.23933 0.229272 0.292401 0.282534 0.271175 0.318835 0.317949 0.315896 0.353347 0.353299 0.352112 0.372494 0.374973 0.376538 0.315896 0.312395 0.307396 0.352112 0.349343 0.344938 0.376538 0.376412 0.374451 0.372494 0.374973 0.376538 0.367077 0.373733 0.380235 0.327643 0.337875 0.349972 0.376538 0.376412 0.374451 0.380235 0.385706 0.389808 0.349972 0.362919 0.376504 0.307396 0.300739 0.292401 0.344938 0.338493 0.329995 0.374451 0.369829 0.36249 0.292401 0.282534 0.271175 0.329995 0.319553 0.307169 0.36249 0.352399 0.339652 0.374451 0.369829 0.36249 0.389808 0.390777 0.388347 0.376504 0.388136 0.396593 0.36249 0.352399 0.339652 0.388347 0.381191 0.369614 0.396593 0.398166 0.392299 0.269722 0.260707 0.254632 0.269856 0.264601 0.261418 0.265905 0.26499 0.265323 0.254632 0.249394 0.245759 0.261418 0.258669 0.257136 0.265323 0.265405 0.266157 0.265905 0.26499 0.265323 0.257882 0.262084 0.26656 0.246709 0.257049 0.265819 0.265323 0.265405 0.266157 0.26656 0.269844 0.272962 0.265819 0.272421 0.277825 0.245759 0.242462 0.239816 0.257136 0.255515 0.254153 0.266157 0.26632 0.266278 0.239816 0.237472 0.235574 0.254153 0.252746 0.251413 0.266278 0.265801 0.265021 0.266157 0.26632 0.266278 0.272962 0.274982 0.27625 0.277825 0.281626 0.284115 0.266278 0.265801 0.265021 0.27625 0.276694 0.276398 0.284115 0.285403 0.285544 0.246709 0.257049 0.265819 0.234833 0.251144 0.263982 0.22443 0.245786 0.261886 0.265819 0.272421 0.277825 0.263982 0.273696 0.281081 0.261886 0.274089 0.282984 0.22443 0.245786 0.261886 0.218432 0.242805 0.260665 0.217873 0.242321 0.260413 0.261886 0.274089 0.282984 0.260665 0.27425 0.283949 0.260413 0.274186 0.28395 0.277825 0.281626 0.284115 0.281081 0.286444 0.289967 0.282984 0.28955 0.293855 0.284115 0.285403 0.285544 0.289967 0.291967 0.29246 0.293855 0.296401 0.297145 0.282984 0.28955 0.293855 0.283949 0.291155 0.295879 0.28395 0.291253 0.296033 0.293855 0.296401 0.297145 0.295879 0.298705 0.299598 0.296033 0.298921 0.299822 0 0 0 0.101806 0.0985263 0.0943337 0.175436 0.169358 0.162175 0 0 0 0.0943337 0.0896077 0.0843952 0.162175 0.154346 0.146018 0.175436 0.169358 0.162175 0.229272 0.221321 0.212222 0.271175 0.262006 0.251624 0.162175 0.154346 0.146018 0.212222 0.202542 0.192404 0.251624 0.240701 0.229353 0 0 0 0.0843952 0.0790458 0.0736885 0.146018 0.137641 0.129399 0 0 0 0.0736885 0.0685338 0.063732 0.129399 0.121582 0.114354 0.146018 0.137641 0.129399 0.192404 0.18239 0.172659 0.229353 0.21832 0.20773 0.129399 0.121582 0.114354 0.172659 0.163568 0.155272 0.20773 0.197996 0.189261 0.271175 0.262006 0.251624 0.307169 0.29714 0.285678 0.339652 0.32893 0.316138 0.251624 0.240701 0.229353 0.285678 0.273586 0.260998 0.316138 0.302462 0.288095 0.339652 0.32893 0.316138 0.369614 0.358462 0.344118 0.392299 0.382306 0.36676 0.316138 0.302462 0.288095 0.344118 0.328251 0.311092 0.36676 0.348171 0.327262 0.229353 0.21832 0.20773 0.260998 0.248945 0.237519 0.288095 0.274581 0.261972 0.20773 0.197996 0.189261 0.237519 0.227226 0.218111 0.261972 0.251013 0.241639 0.288095 0.274581 0.261972 0.311092 0.295369 0.280856 0.327262 0.308626 0.291979 0.261972 0.251013 0.241639 0.280856 0.268851 0.259165 0.291979 0.279321 0.269722 0 0 0 0.063732 0.0581608 0.053318 0.114354 0.105766 0.098227 0 0 0 0.053318 0.0491395 0.0457163 0.098227 0.0917261 0.0863484 0.114354 0.105766 0.098227 0.155272 0.145124 0.136253 0.189261 0.178387 0.168955 0.098227 0.0917261 0.0863484 0.136253 0.128595 0.122258 0.168955 0.160842 0.154155 0 0 0 0.0457163 0.0429567 0.0409546 0.0863484 0.0820003 0.0787208 0 0 0 0.0409546 0.0395799 0.0388943 0.0787208 0.0764107 0.0750892 0.0863484 0.0820003 0.0787208 0.122258 0.117085 0.113127 0.154155 0.148662 0.144421 0.0787208 0.0764107 0.0750892 0.113127 0.110278 0.108585 0.144421 0.141307 0.139381 0.189261 0.178387 0.168955 0.218111 0.206807 0.197241 0.241639 0.230416 0.2212 0.168955 0.160842 0.154155 0.197241 0.189064 0.182436 0.2212 0.213402 0.207234 0.241639 0.230416 0.2212 0.259165 0.248531 0.240387 0.269722 0.260707 0.254632 0.2212 0.213402 0.207234 0.240387 0.233503 0.228325 0.254632 0.249394 0.245759 0.154155 0.148662 0.144421 0.182436 0.176956 0.172718 0.207234 0.202085 0.198092 0.144421 0.141307 0.139381 0.172718 0.169538 0.167478 0.198092 0.194992 0.192876 0.207234 0.202085 0.198092 0.228325 0.223895 0.22044 0.245759 0.242462 0.239816 0.198092 0.194992 0.192876 0.22044 0.217635 0.215575 0.239816 0.237472 0.235574 0.266992 0.272143 0.277741 0.254077 0.260132 0.266926 0.23267 0.238919 0.246131 0.277741 0.283892 0.290402 0.266926 0.274586 0.282994 0.246131 0.254458 0.263867 0.23267 0.238919 0.246131 0.203906 0.209692 0.216563 0.169265 0.174056 0.179936 0.246131 0.254458 0.263867 0.216563 0.224692 0.234136 0.179936 0.187074 0.19561 0.290402 0.297236 0.304139 0.282994 0.292134 0.301791 0.263867 0.27439 0.285866 0.304139 0.311457 0.318838 0.301791 0.312054 0.322599 0.285866 0.298148 0.310921 0.263867 0.27439 0.285866 0.234136 0.245006 0.257228 0.19561 0.205741 0.217523 0.285866 0.298148 0.310921 0.257228 0.270526 0.284662 0.217523 0.230661 0.24504 0.169265 0.174056 0.179936 0.130364 0.133844 0.138287 0.0885793 0.0906718 0.0934888 0.179936 0.187074 0.19561 0.138287 0.143836 0.150674 0.0934888 0.0971226 0.101748 0.0885793 0.0906718 0.0934888 0.0449436 0.0458077 0.0470801 0 0 0 0.0934888 0.0971226 0.101748 0.0470801 0.0487794 0.0510323 0 0 0 0.19561 0.205741 0.217523 0.150674 0.159053 0.16916 0.101748 0.107599 0.114962 0.217523 0.230661 0.24504 0.16916 0.180735 0.193881 0.114962 0.123603 0.133787 0.101748 0.107599 0.114962 0.0510323 0.0539483 0.0578449 0 0 0 0.114962 0.123603 0.133787 0.0578449 0.0624703 0.0681438 0 0 0 0.234282 0.236363 0.238774 0.218553 0.220799 0.22337 0.198496 0.200652 0.203083 0.238774 0.241729 0.245209 0.22337 0.22649 0.230152 0.203083 0.206011 0.209426 0.198496 0.200652 0.203083 0.174293 0.176179 0.178261 0.146214 0.147726 0.149347 0.203083 0.206011 0.209426 0.178261 0.180746 0.183613 0.149347 0.151255 0.153415 0.245209 0.249359 0.254211 0.230152 0.234561 0.239773 0.209426 0.213573 0.21852 0.254211 0.26013 0.266992 0.239773 0.246295 0.254077 0.21852 0.224878 0.23267 0.209426 0.213573 0.21852 0.183613 0.187116 0.191319 0.153415 0.156063 0.159233 0.21852 0.224878 0.23267 0.191319 0.19689 0.203906 0.159233 0.1636 0.169265 0.146214 0.147726 0.149347 0.114538 0.115642 0.116774 0.0795045 0.0802097 0.080886 0.149347 0.151255 0.153415 0.116774 0.118084 0.119517 0.080886 0.0816563 0.0824445 0.0795045 0.0802097 0.080886 0.0412885 0.0416293 0.0419186 0 0 0 0.080886 0.0816563 0.0824445 0.0419186 0.0422532 0.0425462 0 0 0 0.153415 0.156063 0.159233 0.119517 0.121273 0.123337 0.0824445 0.0834141 0.0844856 0.159233 0.1636 0.169265 0.123337 0.126335 0.130364 0.0844856 0.086183 0.0885793 0.0824445 0.0834141 0.0844856 0.0425462 0.0429283 0.043274 0 0 0 0.0844856 0.086183 0.0885793 0.043274 0.0439323 0.0449436 0 0 0 0.254451 0.249515 0.243914 0.254302 0.249725 0.244543 0.255311 0.251525 0.247256 0.243914 0.237448 0.230024 0.244543 0.238577 0.231734 0.247256 0.242371 0.236784 0.255311 0.251525 0.247256 0.256733 0.254044 0.25104 0.257544 0.256099 0.254523 0.247256 0.242371 0.236784 0.25104 0.247646 0.243786 0.254523 0.252812 0.2509 0.230024 0.221198 0.21085 0.231734 0.223593 0.214035 0.236784 0.230116 0.222263 0.21085 0.198519 0.183802 0.214035 0.20261 0.188917 0.222263 0.212817 0.201386 0.236784 0.230116 0.222263 0.243786 0.23915 0.233648 0.2509 0.248561 0.245725 0.222263 0.212817 0.201386 0.233648 0.226947 0.218675 0.245725 0.242163 0.237532 0.257544 0.256099 0.254523 0.256619 0.256393 0.256211 0.252935 0.253762 0.254776 0.254523 0.252812 0.2509 0.256211 0.256138 0.256122 0.254776 0.256108 0.257717 0.252935 0.253762 0.254776 0.245663 0.247272 0.249167 0.234282 0.236363 0.238774 0.254776 0.256108 0.257717 0.249167 0.251528 0.254326 0.238774 0.241729 0.245209 0.2509 0.248561 0.245725 0.256122 0.256028 0.255811 0.257717 0.259567 0.261637 0.245725 0.242163 0.237532 0.255811 0.255367 0.254391 0.261637 0.263973 0.266319 0.257717 0.259567 0.261637 0.254326 0.25762 0.261416 0.245209 0.249359 0.254211 0.261637 0.263973 0.266319 0.261416 0.265921 0.270936 0.254211 0.26013 0.266992 0.183802 0.172377 0.159446 0.188917 0.178229 0.166074 0.201386 0.192353 0.181977 0.159446 0.145185 0.129157 0.166074 0.152613 0.1374 0.181977 0.170391 0.157142 0.201386 0.192353 0.181977 0.218675 0.211976 0.204133 0.237532 0.233557 0.228703 0.181977 0.170391 0.157142 0.204133 0.195249 0.184879 0.228703 0.223049 0.216176 0.129157 0.111687 0.0922385 0.1374 0.120717 0.102009 0.157142 0.142429 0.12568 0.0922385 0.0722641 0.0517015 0.102009 0.0826814 0.0625924 0.12568 0.108186 0.0896299 0.157142 0.142429 0.12568 0.184879 0.173125 0.159414 0.216176 0.208102 0.19829 0.12568 0.108186 0.0896299 0.159414 0.144889 0.129043 0.19829 0.187725 0.175801 0.237532 0.233557 0.228703 0.254391 0.2532 0.251438 0.266319 0.267722 0.268893 0.228703 0.223049 0.216176 0.251438 0.249178 0.246041 0.268893 0.26991 0.270452 0.266319 0.267722 0.268893 0.270936 0.2745 0.278179 0.266992 0.272143 0.277741 0.268893 0.26991 0.270452 0.278179 0.282062 0.285887 0.277741 0.283892 0.290402 0.216176 0.208102 0.19829 0.246041 0.242001 0.236588 0.270452 0.270474 0.269592 0.19829 0.187725 0.175801 0.236588 0.23066 0.223567 0.269592 0.268534 0.266776 0.270452 0.270474 0.269592 0.285887 0.289612 0.292931 0.290402 0.297236 0.304139 0.269592 0.268534 0.266776 0.292931 0.296411 0.299588 0.304139 0.311457 0.318838 0.224951 0.225379