# vtk DataFile Version 3.0
#This file was generated by the deal.II library on 2024/9/17 at 11:47:42
ASCII
DATASET UNSTRUCTURED_GRID

POINTS 5760 double
0.11 0.11 0
0.09625 0.10875 0
0.0825 0.1075 0
0.10875 0.09625 0
0.0951562 0.0951563 0
0.0815625 0.0940625 0
0.1075 0.0825 0
0.0940625 0.0815625 0
0.080625 0.080625 0
0.0825 0.1075 0
0.06875 0.10625 0
0.055 0.105 0
0.0815625 0.0940625 0
0.0679688 0.0929688 0
0.054375 0.091875 0
0.080625 0.080625 0
0.0671875 0.0796875 0
0.05375 0.07875 0
0.1075 0.0825 0
0.0940625 0.0815625 0
0.080625 0.080625 0
0.10625 0.06875 0
0.0929688 0.0679688 0
0.0796875 0.0671875 0
0.105 0.055 0
0.091875 0.054375 0
0.07875 0.05375 0
0.080625 0.080625 0
0.0671875 0.0796875 0
0.05375 0.07875 0
0.0796875 0.0671875 0
0.0664063 0.0664062 0
0.053125 0.065625 0
0.07875 0.05375 0
0.065625 0.053125 0
0.0525 0.0525 0
0.055 0.105 0
0.04125 0.10375 0
0.0275 0.1025 0
0.054375 0.091875 0
0.0407813 0.0907813 0
0.0271875 0.0896875 0
0.05375 0.07875 0
0.0403125 0.0778125 0
0.026875 0.076875 0
0.0275 0.1025 0
0.01375 0.10125 0
0 0.1 0
0.0271875 0.0896875 0
0.0135938 0.0885938 0
0 0.0875 0
0.026875 0.076875 0
0.0134375 0.0759375 0
0 0.075 0
0.05375 0.07875 0
0.0403125 0.0778125 0
0.026875 0.076875 0
0.053125 0.065625 0
0.0398438 0.0648438 0
0.0265625 0.0640625 0
0.0525 0.0525 0
0.039375 0.051875 0
0.02625 0.05125 0
0.026875 0.076875 0
0.0134375 0.0759375 0
0 0.075 0
0.0265625 0.0640625 0
0.0132813 0.0632813 0
0 0.0625 0
0.02625 0.05125 0
0.013125 0.050625 0
0 0.05 0
0.105 0.055 0
0.091875 0.054375 0
0.07875 0.05375 0
0.10375 0.04125 0
0.0907813 0.0407813 0
0.0778125 0.0403125 0
0.1025 0.0275 0
0.0896875 0.0271875 0
0.076875 0.026875 0
0.07875 0.05375 0
0.065625 0.053125 0
0.0525 0.0525 0
0.0778125 0.0403125 0
0.0648438 0.0398438 0
0.051875 0.039375 0
0.076875 0.026875 0
0.0640625 0.0265625 0
0.05125 0.02625 0
0.1025 0.0275 0
0.0896875 0.0271875 0
0.076875 0.026875 0
0.10125 0.01375 0
0.0885937 0.0135938 0
0.0759375 0.0134375 0
0.1 0 0
0.0875 0 0
0.075 0 0
0.076875 0.026875 0
0.0640625 0.0265625 0
0.05125 0.02625 0
0.0759375 0.0134375 0
0.0632812 0.0132813 0
0.050625 0.013125 0
0.075 0 0
0.0625 0 0
0.05 0 0
0.0525 0.0525 0
0.039375 0.051875 0
0.02625 0.05125 0
0.051875 0.039375 0
0.0389063 0.0389063 0
0.0259375 0.0384375 0
0.05125 0.02625 0
0.0384375 0.0259375 0
0.025625 0.025625 0
0.02625 0.05125 0
0.013125 0.050625 0
0 0.05 0
0.0259375 0.0384375 0
0.0129688 0.0379688 0
0 0.0375 0
0.025625 0.025625 0
0.0128125 0.0253125 0
0 0.025 0
0.05125 0.02625 0
0.0384375 0.0259375 0
0.025625 0.025625 0
0.050625 0.013125 0
0.0379688 0.0129688 0
0.0253125 0.0128125 0
0.05 0 0
0.0375 0 0
0.025 0 0
0.025625 0.025625 0
0.0128125 0.0253125 0
0 0.025 0
0.0253125 0.0128125 0
0.0126563 0.0126563 0
0 0.0125 0
0.025 0 0
0.0125 0 0
0 0 0
0.2 0.1 0
0.18875 0.10125 0
0.1775 0.1025 0
0.2 0.0875 0
0.188594 0.0885938 0
0.177187 0.0896875 0
0.2 0.075 0
0.188438 0.0759375 0
0.176875 0.076875 0
0.1775 0.1025 0
0.16625 0.10375 0
0.155 0.105 0
0.177187 0.0896875 0
0.165781 0.0907813 0
0.154375 0.091875 0
0.176875 0.076875 0
0.165313 0.0778125 0
0.15375 0.07875 0
0.2 0.075 0
0.188438 0.0759375 0
0.176875 0.076875 0
0.2 0.0625 0
0.188281 0.0632813 0
0.176563 0.0640625 0
0.2 0.05 0
0.188125 0.050625 0
0.17625 0.05125 0
0.176875 0.076875 0
0.165313 0.0778125 0
0.15375 0.07875 0
0.176563 0.0640625 0
0.164844 0.0648438 0
0.153125 0.065625 0
0.17625 0.05125 0
0.164375 0.051875 0
0.1525 0.0525 0
0.155 0.105 0
0.14375 0.10625 0
0.1325 0.1075 0
0.154375 0.091875 0
0.142969 0.0929688 0
0.131562 0.0940625 0
0.15375 0.07875 0
0.142187 0.0796875 0
0.130625 0.080625 0
0.1325 0.1075 0
0.12125 0.10875 0
0.11 0.11 0
0.131562 0.0940625 0
0.120156 0.0951563 0
0.10875 0.09625 0
0.130625 0.080625 0
0.119063 0.0815625 0
0.1075 0.0825 0
0.15375 0.07875 0
0.142187 0.0796875 0
0.130625 0.080625 0
0.153125 0.065625 0
0.141406 0.0664062 0
0.129688 0.0671875 0
0.1525 0.0525 0
0.140625 0.053125 0
0.12875 0.05375 0
0.130625 0.080625 0
0.119063 0.0815625 0
0.1075 0.0825 0
0.129688 0.0671875 0
0.117969 0.0679688 0
0.10625 0.06875 0
0.12875 0.05375 0
0.116875 0.054375 0
0.105 0.055 0
0.2 0.05 0
0.188125 0.050625 0
0.17625 0.05125 0
0.2 0.0375 0
0.187969 0.0379688 0
0.175938 0.0384375 0
0.2 0.025 0
0.187813 0.0253125 0
0.175625 0.025625 0
0.17625 0.05125 0
0.164375 0.051875 0
0.1525 0.0525 0
0.175938 0.0384375 0
0.163906 0.0389063 0
0.151875 0.039375 0
0.175625 0.025625 0
0.163438 0.0259375 0
0.15125 0.02625 0
0.2 0.025 0
0.187813 0.0253125 0
0.175625 0.025625 0
0.2 0.0125 0
0.187656 0.0126563 0
0.175313 0.0128125 0
0.2 0 0
0.1875 0 0
0.175 0 0
0.175625 0.025625 0
0.163438 0.0259375 0
0.15125 0.02625 0
0.175313 0.0128125 0
0.162969 0.0129688 0
0.150625 0.013125 0
0.175 0 0
0.1625 0 0
0.15 0 0
0.1525 0.0525 0
0.140625 0.053125 0
0.12875 0.05375 0
0.151875 0.039375 0
0.139844 0.0398438 0
0.127813 0.0403125 0
0.15125 0.02625 0
0.139063 0.0265625 0
0.126875 0.026875 0
0.12875 0.05375 0
0.116875 0.054375 0
0.105 0.055 0
0.127813 0.0403125 0
0.115781 0.0407813 0
0.10375 0.04125 0
0.126875 0.026875 0
0.114688 0.0271875 0
0.1025 0.0275 0
0.15125 0.02625 0
0.139063 0.0265625 0
0.126875 0.026875 0
0.150625 0.013125 0
0.138281 0.0132813 0
0.125938 0.0134375 0
0.15 0 0
0.1375 0 0
0.125 0 0
0.126875 0.026875 0
0.114688 0.0271875 0
0.1025 0.0275 0
0.125938 0.0134375 0
0.113594 0.0135938 0
0.10125 0.01375 0
0.125 0 0
0.1125 0 0
0.1 0 0
0.1 0.2 0
0.0875 0.2 0
0.075 0.2 0
0.10125 0.18875 0
0.0885937 0.188594 0
0.0759375 0.188438 0
0.1025 0.1775 0
0.0896875 0.177187 0
0.076875 0.176875 0
0.075 0.2 0
0.0625 0.2 0
0.05 0.2 0
0.0759375 0.188438 0
0.0632813 0.188281 0
0.050625 0.188125 0
0.076875 0.176875 0
0.0640625 0.176563 0
0.05125 0.17625 0
0.1025 0.1775 0
0.0896875 0.177187 0
0.076875 0.176875 0
0.10375 0.16625 0
0.0907813 0.165781 0
0.0778125 0.165313 0
0.105 0.155 0
0.091875 0.154375 0
0.07875 0.15375 0
0.076875 0.176875 0
0.0640625 0.176563 0
0.05125 0.17625 0
0.0778125 0.165313 0
0.0648438 0.164844 0
0.051875 0.164375 0
0.07875 0.15375 0
0.065625 0.153125 0
0.0525 0.1525 0
0.05 0.2 0
0.0375 0.2 0
0.025 0.2 0
0.050625 0.188125 0
0.0379688 0.187969 0
0.0253125 0.187813 0
0.05125 0.17625 0
0.0384375 0.175938 0
0.025625 0.175625 0
0.025 0.2 0
0.0125 0.2 0
0 0.2 0
0.0253125 0.187813 0
0.0126563 0.187656 0
0 0.1875 0
0.025625 0.175625 0
0.0128125 0.175313 0
0 0.175 0
0.05125 0.17625 0
0.0384375 0.175938 0
0.025625 0.175625 0
0.051875 0.164375 0
0.0389063 0.163906 0
0.0259375 0.163438 0
0.0525 0.1525 0
0.039375 0.151875 0
0.02625 0.15125 0
0.025625 0.175625 0
0.0128125 0.175313 0
0 0.175 0
0.0259375 0.163438 0
0.0129688 0.162969 0
0 0.1625 0
0.02625 0.15125 0
0.013125 0.150625 0
0 0.15 0
0.105 0.155 0
0.091875 0.154375 0
0.07875 0.15375 0
0.10625 0.14375 0
0.0929688 0.142969 0
0.0796875 0.142187 0
0.1075 0.1325 0
0.0940625 0.131562 0
0.080625 0.130625 0
0.07875 0.15375 0
0.065625 0.153125 0
0.0525 0.1525 0
0.0796875 0.142187 0
0.0664063 0.141406 0
0.053125 0.140625 0
0.080625 0.130625 0
0.0671875 0.129688 0
0.05375 0.12875 0
0.1075 0.1325 0
0.0940625 0.131562 0
0.080625 0.130625 0
0.10875 0.12125 0
0.0951563 0.120156 0
0.0815625 0.119063 0
0.11 0.11 0
0.09625 0.10875 0
0.0825 0.1075 0
0.080625 0.130625 0
0.0671875 0.129688 0
0.05375 0.12875 0
0.0815625 0.119063 0
0.0679688 0.117969 0
0.054375 0.116875 0
0.0825 0.1075 0
0.06875 0.10625 0
0.055 0.105 0
0.0525 0.1525 0
0.039375 0.151875 0
0.02625 0.15125 0
0.053125 0.140625 0
0.0398438 0.139844 0
0.0265625 0.139063 0
0.05375 0.12875 0
0.0403125 0.127813 0
0.026875 0.126875 0
0.02625 0.15125 0
0.013125 0.150625 0
0 0.15 0
0.0265625 0.139063 0
0.0132813 0.138281 0
0 0.1375 0
0.026875 0.126875 0
0.0134375 0.125938 0
0 0.125 0
0.05375 0.12875 0
0.0403125 0.127813 0
0.026875 0.126875 0
0.054375 0.116875 0
0.0407813 0.115781 0
0.0271875 0.114688 0
0.055 0.105 0
0.04125 0.10375 0
0.0275 0.1025 0
0.026875 0.126875 0
0.0134375 0.125938 0
0 0.125 0
0.0271875 0.114688 0
0.0135938 0.113594 0
0 0.1125 0
0.0275 0.1025 0
0.01375 0.10125 0
0 0.1 0
0.29 0.11 0
0.27875 0.10875 0
0.2675 0.1075 0
0.29125 0.09625 0
0.279844 0.0951563 0
0.268437 0.0940625 0
0.2925 0.0825 0
0.280938 0.0815625 0
0.269375 0.080625 0
0.2675 0.1075 0
0.25625 0.10625 0
0.245 0.105 0
0.268437 0.0940625 0
0.257031 0.0929688 0
0.245625 0.091875 0
0.269375 0.080625 0
0.257812 0.0796875 0
0.24625 0.07875 0
0.2925 0.0825 0
0.280938 0.0815625 0
0.269375 0.080625 0
0.29375 0.06875 0
0.282031 0.0679688 0
0.270313 0.0671875 0
0.295 0.055 0
0.283125 0.054375 0
0.27125 0.05375 0
0.269375 0.080625 0
0.257812 0.0796875 0
0.24625 0.07875 0
0.270313 0.0671875 0
0.258594 0.0664062 0
0.246875 0.065625 0
0.27125 0.05375 0
0.259375 0.053125 0
0.2475 0.0525 0
0.245 0.105 0
0.23375 0.10375 0
0.2225 0.1025 0
0.245625 0.091875 0
0.234219 0.0907813 0
0.222813 0.0896875 0
0.24625 0.07875 0
0.234687 0.0778125 0
0.223125 0.076875 0
0.2225 0.1025 0
0.21125 0.10125 0
0.2 0.1 0
0.222813 0.0896875 0
0.211406 0.0885937 0
0.2 0.0875 0
0.223125 0.076875 0
0.211563 0.0759375 0
0.2 0.075 0
0.24625 0.07875 0
0.234687 0.0778125 0
0.223125 0.076875 0
0.246875 0.065625 0
0.235156 0.0648438 0
0.223438 0.0640625 0
0.2475 0.0525 0
0.235625 0.051875 0
0.22375 0.05125 0
0.223125 0.076875 0
0.211563 0.0759375 0
0.2 0.075 0
0.223438 0.0640625 0
0.211719 0.0632813 0
0.2 0.0625 0
0.22375 0.05125 0
0.211875 0.050625 0
0.2 0.05 0
0.295 0.055 0
0.283125 0.054375 0
0.27125 0.05375 0
0.29625 0.04125 0
0.284219 0.0407813 0
0.272188 0.0403125 0
0.2975 0.0275 0
0.285312 0.0271875 0
0.273125 0.026875 0
0.27125 0.05375 0
0.259375 0.053125 0
0.2475 0.0525 0
0.272188 0.0403125 0
0.260156 0.0398438 0
0.248125 0.039375 0
0.273125 0.026875 0
0.260937 0.0265625 0
0.24875 0.02625 0
0.2975 0.0275 0
0.285312 0.0271875 0
0.273125 0.026875 0
0.29875 0.01375 0
0.286406 0.0135938 0
0.274062 0.0134375 0
0.3 0 0
0.2875 0 0
0.275 0 0
0.273125 0.026875 0
0.260937 0.0265625 0
0.24875 0.02625 0
0.274062 0.0134375 0
0.261719 0.0132813 0
0.249375 0.013125 0
0.275 0 0
0.2625 0 0
0.25 0 0
0.2475 0.0525 0
0.235625 0.051875 0
0.22375 0.05125 0
0.248125 0.039375 0
[...]
POINT_DATA 5760
SCALARS x_velo double 1
LOOKUP_TABLE default
0.259827 0.249939 0.24309 0.248518 0.237159 0.228401 0.231185 0.219243 0.209468 0.24309 0.237178 0.23294 0.228401 0.220977 0.21533 0.209468 0.201185 0.194626 0.231185 0.219243 0.209468 0.208578 0.196552 0.186421 0.181093 0.169499 0.159506 0.209468 0.201185 0.194626 0.186421 0.177774 0.170784 0.159506 0.150941 0.14392 0.23294 0.22915 0.226087 0.21533 0.210512 0.206729 0.194626 0.189154 0.184901 0.226087 0.223425 0.221297 0.206729 0.203676 0.201443 0.184901 0.181607 0.179358 0.194626 0.189154 0.184901 0.170784 0.165013 0.160551 0.14392 0.13817 0.133743 0.184901 0.181607 0.179358 0.160551 0.157206 0.155042 0.133743 0.130496 0.128495 0.181093 0.169499 0.159506 0.148638 0.13785 0.12849 0.109402 0.100341 0.0924607 0.159506 0.150941 0.14392 0.12849 0.120451 0.113847 0.0924607 0.0857089 0.0801703 0.109402 0.100341 0.0924607 0.0607997 0.0550061 0.050025 0 0 0 0.0924607 0.0857089 0.0801703 0.050025 0.0457562 0.0422949 0 0 0 0.14392 0.13817 0.133743 0.113847 0.108478 0.104393 0.0801703 0.075715 0.0723811 0.133743 0.130496 0.128495 0.104393 0.101457 0.0997174 0.0723811 0.0700413 0.0687091 0.0801703 0.075715 0.0723811 0.0422949 0.0395175 0.0375191 0 0 0 0.0723811 0.0700413 0.0687091 0.0375191 0.0361492 0.03547 0 0 0 0.386494 0.376162 0.360189 0.364526 0.352963 0.337934 0.335978 0.324685 0.311043 0.360189 0.341104 0.319624 0.337934 0.321253 0.303195 0.311043 0.296395 0.280952 0.335978 0.324685 0.311043 0.304716 0.294087 0.281748 0.269662 0.259979 0.248817 0.311043 0.296395 0.280952 0.281748 0.26866 0.254975 0.248817 0.236987 0.224629 0.319624 0.300357 0.283103 0.303195 0.286614 0.271343 0.280952 0.266432 0.252909 0.283103 0.269887 0.259827 0.271343 0.258701 0.248518 0.252909 0.241175 0.231185 0.280952 0.266432 0.252909 0.254975 0.241881 0.229492 0.224629 0.212611 0.201089 0.252909 0.241175 0.231185 0.229492 0.218369 0.208578 0.201089 0.190529 0.181093 0.269662 0.259979 0.248817 0.228099 0.21984 0.210161 0.174156 0.168004 0.160498 0.248817 0.236987 0.224629 0.210161 0.199762 0.188784 0.160498 0.152204 0.143289 0.174156 0.168004 0.160498 0.100551 0.0973344 0.0930295 0 0 0 0.160498 0.152204 0.143289 0.0930295 0.0881024 0.0825958 0 0 0 0.224629 0.212611 0.201089 0.188784 0.177929 0.167385 0.143289 0.134301 0.125457 0.201089 0.190529 0.181093 0.167385 0.15756 0.148638 0.125457 0.117093 0.109402 0.143289 0.134301 0.125457 0.0825958 0.0769329 0.071264 0 0 0 0.125457 0.117093 0.109402 0.071264 0.0658274 0.0607997 0 0 0 0.217873 0.242321 0.260412 0.217315 0.241528 0.259262 0.22219 0.243237 0.259084 0.260412 0.274185 0.283949 0.259262 0.272743 0.282358 0.259084 0.271077 0.279804 0.22219 0.243237 0.259084 0.231444 0.247298 0.259768 0.242119 0.251884 0.26018 0.259084 0.271077 0.279804 0.259768 0.269174 0.276307 0.26018 0.266384 0.271455 0.283949 0.291253 0.296033 0.282358 0.289494 0.294165 0.279804 0.286231 0.290426 0.296033 0.298921 0.299822 0.294165 0.296949 0.297814 0.290426 0.292889 0.293575 0.279804 0.286231 0.290426 0.276307 0.281465 0.284824 0.271455 0.274986 0.277257 0.290426 0.292889 0.293575 0.284824 0.286699 0.287106 0.277257 0.278379 0.278406 0.242119 0.251884 0.26018 0.252031 0.255561 0.259471 0.258743 0.257075 0.256764 0.26018 0.266384 0.271455 0.259471 0.262277 0.264987 0.256764 0.256297 0.25657 0.258743 0.257075 0.256764 0.261349 0.255266 0.251372 0.259827 0.249939 0.24309 0.256764 0.256297 0.25657 0.251372 0.248006 0.245932 0.24309 0.237178 0.23294 0.271455 0.274986 0.277257 0.264987 0.266678 0.267674 0.25657 0.256347 0.255983 0.277257 0.278379 0.278406 0.267674 0.267914 0.267475 0.255983 0.255263 0.254313 0.25657 0.256347 0.255983 0.245932 0.243871 0.24214 0.23294 0.22915 0.226087 0.255983 0.255263 0.254313 0.24214 0.240454 0.23892 0.226087 0.223425 0.221297 0.328587 0.338063 0.349298 0.362119 0.368671 0.375138 0.366311 0.369358 0.371547 0.349298 0.361297 0.373902 0.375138 0.380648 0.384883 0.371547 0.372056 0.370711 0.366311 0.369358 0.371547 0.348115 0.348996 0.348691 0.314015 0.314276 0.313259 0.371547 0.372056 0.370711 0.348691 0.346677 0.342881 0.313259 0.310602 0.306242 0.373902 0.384585 0.392173 0.384883 0.386002 0.383685 0.370711 0.36654 0.359434 0.392173 0.393021 0.386494 0.383685 0.376455 0.364526 0.359434 0.349215 0.335978 0.370711 0.36654 0.359434 0.342881 0.336787 0.328366 0.306242 0.299943 0.291668 0.359434 0.349215 0.335978 0.328366 0.317676 0.304716 0.291668 0.281564 0.269662 0.314015 0.314276 0.313259 0.26411 0.265104 0.264824 0.195764 0.19783 0.198841 0.313259 0.310602 0.306242 0.264824 0.262998 0.259541 0.198841 0.198537 0.196798 0.195764 0.19783 0.198841 0.107116 0.109327 0.110946 0 0 0 0.198841 0.198537 0.196798 0.110946 0.111779 0.111686 0 0 0 0.306242 0.299943 0.291668 0.259541 0.254314 0.247254 0.196798 0.193504 0.188559 0.291668 0.281564 0.269662 0.247254 0.238531 0.228099 0.188559 0.182112 0.174156 0.196798 0.193504 0.188559 0.111686 0.110594 0.108324 0 0 0 0.188559 0.182112 0.174156 0.108324 0.105032 0.100551 0 0 0 0.31885 0.321322 0.323409 0.322678 0.328471 0.334013 0.311057 0.319134 0.326991 0.323409 0.324972 0.326068 0.334013 0.3392 0.344086 0.326991 0.334479 0.341611 0.311057 0.319134 0.326991 0.284838 0.294339 0.303687 0.245235 0.255268 0.265302 0.326991 0.334479 0.341611 0.303687 0.312664 0.321209 0.265302 0.275104 0.284559 0.326068 0.326755 0.327174 0.344086 0.348691 0.35313 0.341611 0.348282 0.354563 0.327174 0.327609 0.328587 0.35313 0.357574 0.362119 0.354563 0.360513 0.366311 0.341611 0.348282 0.354563 0.321209 0.329089 0.336286 0.284559 0.293349 0.301381 0.354563 0.360513 0.366311 0.336286 0.342631 0.348115 0.301381 0.308295 0.314015 0.245235 0.255268 0.265302 0.194067 0.20345 0.213036 0.133936 0.141357 0.149111 0.265302 0.275104 0.284559 0.213036 0.222643 0.232167 0.149111 0.157108 0.165303 0.133936 0.141357 0.149111 0.0682265 0.0724298 0.0769077 0 0 0 0.149111 0.157108 0.165303 0.0769077 0.081624 0.0866289 0 0 0 0.284559 0.293349 0.301381 0.232167 0.241283 0.249866 0.165303 0.173452 0.181446 0.301381 0.308295 0.314015 0.249866 0.257516 0.26411 0.181446 0.188941 0.195764 0.165303 0.173452 0.181446 0.0866289 0.0917577 0.0970039 0 0 0 0.181446 0.188941 0.195764 0.0970039 0.102142 0.107116 0 0 0 0.0515884 0.0407104 0.0303839 0.0624665 0.0513772 0.0407666 0.0894781 0.0782832 0.0674021 0.0303839 0.0204709 0.0110509 0.0407666 0.030481 0.0206017 0.0674021 0.0566167 0.045997 0.0894781 0.0782832 0.0674021 0.128868 0.118027 0.107244 0.175618 0.165866 0.155941 0.0674021 0.0566167 0.045997 0.107244 0.0962449 0.0850754 0.155941 0.145494 0.134553 0.0110509 0.00234977 -0.00508131 0.0206017 0.0113551 0.00325114 0.045997 0.0357166 0.0261814 -0.00508131 -0.011095 -0.0149382 0.00325114 -0.00357122 -0.0084299 0.0261814 0.017429 0.00991617 0.045997 0.0357166 0.0261814 0.0850754 0.073821 0.062728 0.134553 0.123103 0.111257 0.0261814 0.017429 0.00991617 0.062728 0.0517034 0.040896 0.111257 0.0988015 0.0856918 0.175618 0.165866 0.155941 0.223404 0.215756 0.207748 0.266656 0.261981 0.256889 0.155941 0.145494 0.134553 0.207748 0.199033 0.189633 0.256889 0.251064 0.244548 0.266656 0.261981 0.256889 0.29953 0.298371 0.296802 0.31885 0.321322 0.323409 0.256889 0.251064 0.244548 0.296802 0.2946 0.291819 0.323409 0.324972 0.326068 0.134553 0.123103 0.111257 0.189633 0.179465 0.168559 0.244548 0.237257 0.229234 0.111257 0.0988015 0.0856918 0.168559 0.156754 0.143924 0.229234 0.220436 0.211134 0.244548 0.237257 0.229234 0.291819 0.28845 0.284587 0.326068 0.326755 0.327174 0.229234 0.220436 0.211134 0.284587 0.280366 0.275839 0.327174 0.327609 0.328587 0.323937 0.324993 0.325832 0.299274 0.297065 0.2946 0.262035 0.256653 0.251002 0.325832 0.326327 0.326545 0.2946 0.291664 0.288319 0.251002 0.244775 0.238017 0.262035 0.256653 0.251002 0.215722 0.207705 0.199474 0.166441 0.156611 0.146745 0.251002 0.244775 0.238017 0.199474 0.190689 0.181376 0.146745 0.136502 0.125907 0.326545 0.326547 0.326483 0.288319 0.28456 0.280492 0.238017 0.230651 0.222721 0.326483 0.326646 0.327594 0.280492 0.276245 0.271861 0.222721 0.214165 0.205244 0.238017 0.230651 0.222721 0.181376 0.171453 0.160951 0.125907 0.114947 0.103736 0.222721 0.214165 0.205244 0.160951 0.149694 0.137544 0.103736 0.0920499 0.0798304 0.166441 0.156611 0.146745 0.119923 0.1092 0.0986476 0.0823696 0.0713611 0.0607442 0.146745 0.136502 0.125907 0.0986476 0.0880015 0.0773004 0.0607442 0.0503104 0.040123 0.0823696 0.0713611 0.0607442 0.0585425 0.047581 0.037138 0.0515884 0.0407104 0.0303839 0.0607442 0.0503104 0.040123 0.037138 0.0270646 0.0174384 0.0303839 0.0204709 0.0110509 0.125907 0.114947 0.103736 0.0773004 0.0666307 0.0562399 0.040123 0.0303535 0.0214096 0.103736 0.0920499 0.0798304 0.0562399 0.0460275 0.0361373 0.0214096 0.0133242 0.00655301 0.040123 0.0303535 0.0214096 0.0174384 0.00848375 0.000711716 0.0110509 0.00234977 -0.00508131 0.0214096 0.0133242 0.00655301 0.000711716 -0.00574116 -0.0101904 -0.00508131 -0.011095 -0.0149382 0 0 0 0.0762672 0.0803935 0.0847 0.148057 0.15504 0.162187 0 0 0 0.0847 0.0891614 0.0938122 0.162187 0.169417 0.176675 0.148057 0.15504 0.162187 0.211822 0.220232 0.22864 0.264165 0.272758 0.281182 0.162187 0.169417 0.176675 0.22864 0.236881 0.244862 0.281182 0.28924 0.296847 0 0 0 0.0938122 0.0984911 0.103171 0.176675 0.183726 0.190462 0 0 0 0.103171 0.107653 0.111872 0.190462 0.196582 0.201931 0.176675 0.183726 0.190462 0.244862 0.252299 0.259093 0.296847 0.303744 0.309872 0.190462 0.196582 0.201931 0.259093 0.264918 0.269687 0.309872 0.314938 0.318893 0.264165 0.272758 0.281182 0.302857 0.310701 0.318327 0.32658 0.333059 0.339379 0.281182 0.28924 0.296847 0.318327 0.325572 0.332409 0.339379 0.345446 0.351299 0.32658 0.333059 0.339379 0.334074 0.338441 0.342702 0.323937 0.324993 0.325832 0.339379 0.345446 0.351299 0.342702 0.346791 0.350776 0.325832 0.326327 0.326545 0.296847 0.303744 0.309872 0.332409 0.338653 0.344306 0.351299 0.356858 0.362198 0.309872 0.314938 0.318893 0.344306 0.349222 0.353388 0.362198 0.367365 0.372512 0.351299 0.356858 0.362198 0.350776 0.354681 0.358617 0.326545 0.326547 0.326483 0.362198 0.367365 0.372512 0.358617 0.36272 0.367063 0.326483 0.326646 0.327594 0 0 0 0.111872 0.113432 0.114385 0.201931 0.202881 0.202822 0 0 0 0.114385 0.114594 0.113936 0.202822 0.201565 0.199019 0.201931 0.202881 0.202822 0.269687 0.269433 0.268005 0.318893 0.317998 0.315938 0.202822 0.201565 0.199019 0.268005 0.265213 0.260992 0.315938 0.31243 0.307425 0 0 0 0.113936 0.112381 0.109787 0.199019 0.195127 0.18982 0 0 0 0.109787 0.106307 0.101817 0.18982 0.183258 0.175452 0.199019 0.195127 0.18982 0.260992 0.25527 0.247999 0.307425 0.300763 0.29242 0.18982 0.183258 0.175452 0.247999 0.239349 0.229287 0.29242 0.282551 0.271188 0.318893 0.317998 0.315938 0.353388 0.353335 0.352142 0.372512 0.37499 0.376553 0.315938 0.31243 0.307425 0.352142 0.349368 0.34496 0.376553 0.376425 0.374462 0.372512 0.37499 0.376553 0.367063 0.373722 0.380227 0.327594 0.337833 0.349936 0.376553 0.376425 0.374462 0.380227 0.385699 0.389804 0.349936 0.362889 0.376479 0.307425 0.300763 0.29242 0.34496 0.338511 0.330009 0.374462 0.369839 0.362498 0.29242 0.282551 0.271188 0.330009 0.319565 0.307179 0.362498 0.352406 0.339657 0.374462 0.369839 0.362498 0.389804 0.390774 0.388345 0.376479 0.388118 0.396579 0.362498 0.352406 0.339657 0.388345 0.38119 0.369614 0.396579 0.398156 0.392292 0.269722 0.260706 0.254632 0.269855 0.264601 0.261418 0.265904 0.26499 0.265323 0.254632 0.249394 0.245759 0.261418 0.258669 0.257136 0.265323 0.265405 0.266157 0.265904 0.26499 0.265323 0.25788 0.262083 0.26656 0.246708 0.257049 0.265819 0.265323 0.265405 0.266157 0.26656 0.269843 0.272962 0.265819 0.272421 0.277824 0.245759 0.242462 0.239816 0.257136 0.255515 0.254153 0.266157 0.26632 0.266278 0.239816 0.237472 0.235574 0.254153 0.252746 0.251413 0.266278 0.265801 0.265021 0.266157 0.26632 0.266278 0.272962 0.274982 0.27625 0.277824 0.281626 0.284115 0.266278 0.265801 0.265021 0.27625 0.276694 0.276398 0.284115 0.285403 0.285544 0.246708 0.257049 0.265819 0.234832 0.251144 0.263981 0.224429 0.245785 0.261885 0.265819 0.272421 0.277824 0.263981 0.273696 0.28108 0.261885 0.274089 0.282984 0.224429 0.245785 0.261885 0.218431 0.242804 0.260664 0.217873 0.242321 0.260412 0.261885 0.274089 0.282984 0.260664 0.27425 0.283948 0.260412 0.274185 0.283949 0.277824 0.281626 0.284115 0.28108 0.286444 0.289967 0.282984 0.28955 0.293854 0.284115 0.285403 0.285544 0.289967 0.291967 0.29246 0.293854 0.296401 0.297145 0.282984 0.28955 0.293854 0.283948 0.291154 0.295879 0.283949 0.291253 0.296033 0.293854 0.296401 0.297145 0.295879 0.298705 0.299598 0.296033 0.298921 0.299822 0 0 0 0.101817 0.0985352 0.0943408 0.175452 0.169371 0.162185 0 0 0 0.0943408 0.0896132 0.0843995 0.162185 0.154353 0.146024 0.175452 0.169371 0.162185 0.229287 0.221334 0.212231 0.271188 0.262017 0.251632 0.162185 0.154353 0.146024 0.212231 0.20255 0.19241 0.251632 0.240708 0.229358 0 0 0 0.0843995 0.0790491 0.073691 0.146024 0.137646 0.129402 0 0 0 0.073691 0.0685356 0.0637334 0.129402 0.121584 0.114356 0.146024 0.137646 0.129402 0.19241 0.182395 0.172663 0.229358 0.218324 0.207733 0.129402 0.121584 0.114356 0.172663 0.163571 0.155274 0.207733 0.197998 0.189262 0.271188 0.262017 0.251632 0.307179 0.297147 0.285684 0.339657 0.328934 0.316141 0.251632 0.240708 0.229358 0.285684 0.27359 0.261001 0.316141 0.302465 0.288097 0.339657 0.328934 0.316141 0.369614 0.358462 0.344117 0.392292 0.3823 0.366756 0.316141 0.302465 0.288097 0.344117 0.32825 0.311092 0.366756 0.348168 0.327259 0.229358 0.218324 0.207733 0.261001 0.248948 0.237521 0.288097 0.274582 0.261973 0.207733 0.197998 0.189262 0.237521 0.227228 0.218112 0.261973 0.251014 0.24164 0.288097 0.274582 0.261973 0.311092 0.295369 0.280856 0.327259 0.308624 0.291978 0.261973 0.251014 0.24164 0.280856 0.268851 0.259165 0.291978 0.27932 0.269722 0 0 0 0.0637334 0.0581617 0.0533186 0.114356 0.105767 0.0982279 0 0 0 0.0533186 0.0491399 0.0457165 0.0982279 0.0917267 0.0863487 0.114356 0.105767 0.0982279 0.155274 0.145126 0.136254 0.189262 0.178388 0.168956 0.0982279 0.0917267 0.0863487 0.136254 0.128596 0.122258 0.168956 0.160843 0.154156 0 0 0 0.0457165 0.0429568 0.0409547 0.0863487 0.0820005 0.0787209 0 0 0 0.0409547 0.0395799 0.0388943 0.0787209 0.0764107 0.0750892 0.0863487 0.0820005 0.0787209 0.122258 0.117085 0.113127 0.154156 0.148663 0.144421 0.0787209 0.0764107 0.0750892 0.113127 0.110278 0.108585 0.144421 0.141307 0.139381 0.189262 0.178388 0.168956 0.218112 0.206808 0.197242 0.24164 0.230416 0.221201 0.168956 0.160843 0.154156 0.197242 0.189064 0.182436 0.221201 0.213402 0.207234 0.24164 0.230416 0.221201 0.259165 0.248531 0.240387 0.269722 0.260706 0.254632 0.221201 0.213402 0.207234 0.240387 0.233503 0.228325 0.254632 0.249394 0.245759 0.154156 0.148663 0.144421 0.182436 0.176957 0.172718 0.207234 0.202085 0.198092 0.144421 0.141307 0.139381 0.172718 0.169538 0.167478 0.198092 0.194992 0.192876 0.207234 0.202085 0.198092 0.228325 0.223895 0.22044 0.245759 0.242462 0.239816 0.198092 0.194992 0.192876 0.22044 0.217635 0.215575 0.239816 0.237472 0.235574 0.267268 0.27238 0.277939 0.2545 0.260511 0.267258 0.233188 0.239393 0.246558 0.277939 0.284051 0.290524 0.267258 0.274871 0.283231 0.246558 0.254834 0.264191 0.233188 0.239393 0.246558 0.204459 0.210205 0.217033 0.16979 0.174549 0.180393 0.246558 0.254834 0.264191 0.217033 0.225114 0.234508 0.180393 0.187491 0.195984 0.290524 0.297324 0.304197 0.283231 0.292325 0.30194 0.264191 0.274663 0.28609 0.304197 0.311489 0.31885 0.30194 0.312165 0.322678 0.28609 0.298325 0.311057 0.264191 0.274663 0.28609 0.234508 0.245327 0.257499 0.195984 0.20607 0.217807 0.28609 0.298325 0.311057 0.257499 0.270748 0.284838 0.217807 0.230899 0.245235 0.16979 0.174549 0.180393 0.130804 0.134261 0.138678 0.0888914 0.0909687 0.093769 0.180393 0.187491 0.195984 0.138678 0.144196 0.151002 0.093769 0.0973838 0.101988 0.0888914 0.0909687 0.093769 0.0451022 0.0459587 0.0472234 0 0 0 0.093769 0.0973838 0.101988 0.0472234 0.0489137 0.0511573 0 0 0 0.195984 0.20607 0.217807 0.151002 0.159347 0.169419 0.101988 0.107818 0.115159 0.217807 0.230899 0.245235 0.169419 0.180958 0.194067 0.115159 0.123776 0.133936 0.101988 0.107818 0.115159 0.0511573 0.0540633 0.0579499 0 0 0 0.115159 0.123776 0.133936 0.0579499 0.0625646 0.0682265 0 0 0 0.234713 0.236818 0.239241 0.219085 0.221369 0.223963 0.199059 0.201263 0.203728 0.239241 0.242193 0.245657 0.223963 0.22709 0.230743 0.203728 0.206673 0.21009 0.199059 0.201263 0.203728 0.174826 0.176765 0.178889 0.146674 0.148237 0.1499 0.203728 0.206673 0.21009 0.178889 0.181398 0.184276 0.1499 0.151838 0.154014 0.245657 0.249778 0.25459 0.230743 0.235129 0.240304 0.21009 0.214223 0.219139 0.25459 0.260461 0.267268 0.240304 0.246777 0.2545 0.219139 0.225453 0.233188 0.21009 0.214223 0.219139 0.184276 0.187775 0.191957 0.154014 0.156663 0.159822 0.219139 0.225453 0.233188 0.191957 0.197492 0.204459 0.159822 0.164163 0.16979 0.146674 0.148237 0.1499 0.114898 0.116045 0.117214 0.0797494 0.0804857 0.0811889 0.1499 0.151838 0.154014 0.117214 0.118552 0.120001 0.0811889 0.0819793 0.0827806 0.0797494 0.0804857 0.0811889 0.0414137 0.0417697 0.0420724 0 0 0 0.0811889 0.0819793 0.0827806 0.0420724 0.0424172 0.0427167 0 0 0 0.154014 0.156663 0.159822 0.120001 0.121763 0.123821 0.0827806 0.0837554 0.0848245 0.159822 0.164163 0.16979 0.123821 0.126802 0.130804 0.0848245 0.0865116 0.0888914 0.0827806 0.0837554 0.0848245 0.0427167 0.0431013 0.0434458 0 0 0 0.0848245 0.0865116 0.0888914 0.0434458 0.0440987 0.0451022 0 0 0 0.253056 0.248139 0.242576 0.253 0.248441 0.243292 0.254194 0.25042 0.246176 0.242576 0.236169 0.228821 0.243292 0.237377 0.230602 0.246176 0.241328 0.23579 0.254194 0.25042 0.246176 0.25587 0.253186 0.250196 0.256975 0.255531 0.253958 0.246176 0.241328 0.23579 0.250196 0.246822 0.242991 0.253958 0.252252 0.250348 0.228821 0.220089 0.209851 0.230602 0.222543 0.213082 0.23579 0.229186 0.221407 0.209851 0.19764 0.183053 0.213082 0.201765 0.188192 0.221407 0.212047 0.200712 0.23579 0.229186 0.221407 0.242991 0.238393 0.232939 0.250348 0.248022 0.245206 0.221407 0.212047 0.200712 0.232939 0.226294 0.218089 0.245206 0.241671 0.237073 0.256975 0.255531 0.253958 0.256354 0.256128 0.255943 0.252955 0.253785 0.254797 0.253958 0.252252 0.250348 0.255943 0.255864 0.255839 0.254797 0.256117 0.257707 0.252955 0.253785 0.254797 0.245919 0.247542 0.24944 0.234713 0.236818 0.239241 0.254797 0.256117 0.257707 0.24944 0.25179 0.254567 0.239241 0.242193 0.245657 0.250348 0.248022 0.245206 0.255839 0.255738 0.255516 0.257707 0.259535 0.261581 0.245206 0.241671 0.237073 0.255516 0.25507 0.254098 0.261581 0.263892 0.266216 0.257707 0.259535 0.261581 0.254567 0.257832 0.261593 0.245657 0.249778 0.25459 0.261581 0.263892 0.266216 0.261593 0.266056 0.27103 0.25459 0.260461 0.267268 0.183053 0.171718 0.158877 0.188192 0.177585 0.165514 0.200712 0.191746 0.18144 0.158877 0.144704 0.128763 0.165514 0.152135 0.137004 0.18144 0.169924 0.156745 0.200712 0.191746 0.18144 0.218089 0.211438 0.203647 0.237073 0.233126 0.228303 0.18144 0.169924 0.156745 0.203647 0.194815 0.184501 0.228303 0.222682 0.215844 0.128763 0.111374 0.0920016 0.137004 0.120397 0.101763 0.156745 0.142101 0.125417 0.0920016 0.0720941 0.0515884 0.101763 0.0824995 0.0624665 0.125417 0.107981 0.0894781 0.156745 0.142101 0.125417 0.184501 0.1728 0.159142 0.215844 0.207808 0.198034 0.125417 0.107981 0.0894781 0.159142 0.144667 0.128868 0.198034 0.187507 0.175618 0.237073 0.233126 0.228303 0.254098 0.252913 0.251161 0.266216 0.267606 0.268767 0.228303 0.222682 0.215844 0.251161 0.248913 0.245793 0.268767 0.269778 0.270315 0.266216 0.267606 0.268767 0.27103 0.274566 0.278218 0.267268 0.27238 0.277939 0.268767 0.269778 0.270315 0.278218 0.282076 0.285879 0.277939 0.284051 0.290524 0.215844 0.207808 0.198034 0.245793 0.241771 0.23638 0.270315 0.270337 0.269458 0.198034 0.187507 0.175618 0.23638 0.230474 0.223404 0.269458 0.268406 0.266656 0.270315 0.270337 0.269458 0.285879 0.289586 0.292891 0.290524 0.297324 0.304197 0.269458 0.268406