# vtk DataFile Version 3.0
#This file was generated by the deal.II library on 2024/9/17 at 11:44:27
ASCII
DATASET UNSTRUCTURED_GRID

POINTS 5760 double
0.11 0.11 0
0.09625 0.10875 0
0.0825 0.1075 0
0.10875 0.09625 0
0.0951562 0.0951563 0
0.0815625 0.0940625 0
0.1075 0.0825 0
0.0940625 0.0815625 0
0.080625 0.080625 0
0.0825 0.1075 0
0.06875 0.10625 0
0.055 0.105 0
0.0815625 0.0940625 0
0.0679688 0.0929688 0
0.054375 0.091875 0
0.080625 0.080625 0
0.0671875 0.0796875 0
0.05375 0.07875 0
0.1075 0.0825 0
0.0940625 0.0815625 0
0.080625 0.080625 0
0.10625 0.06875 0
0.0929688 0.0679688 0
0.0796875 0.0671875 0
0.105 0.055 0
0.091875 0.054375 0
0.07875 0.05375 0
0.080625 0.080625 0
0.0671875 0.0796875 0
0.05375 0.07875 0
0.0796875 0.0671875 0
0.0664063 0.0664062 0
0.053125 0.065625 0
0.07875 0.05375 0
0.065625 0.053125 0
0.0525 0.0525 0
0.055 0.105 0
0.04125 0.10375 0
0.0275 0.1025 0
0.054375 0.091875 0
0.0407813 0.0907813 0
0.0271875 0.0896875 0
0.05375 0.07875 0
0.0403125 0.0778125 0
0.026875 0.076875 0
0.0275 0.1025 0
0.01375 0.10125 0
0 0.1 0
0.0271875 0.0896875 0
0.0135938 0.0885938 0
0 0.0875 0
0.026875 0.076875 0
0.0134375 0.0759375 0
0 0.075 0
0.05375 0.07875 0
0.0403125 0.0778125 0
0.026875 0.076875 0
0.053125 0.065625 0
0.0398438 0.0648438 0
0.0265625 0.0640625 0
0.0525 0.0525 0
0.039375 0.051875 0
0.02625 0.05125 0
0.026875 0.076875 0
0.0134375 0.0759375 0
0 0.075 0
0.0265625 0.0640625 0
0.0132813 0.0632813 0
0 0.0625 0
0.02625 0.05125 0
0.013125 0.050625 0
0 0.05 0
0.105 0.055 0
0.091875 0.054375 0
0.07875 0.05375 0
0.10375 0.04125 0
0.0907813 0.0407813 0
0.0778125 0.0403125 0
0.1025 0.0275 0
0.0896875 0.0271875 0
0.076875 0.026875 0
0.07875 0.05375 0
0.065625 0.053125 0
0.0525 0.0525 0
0.0778125 0.0403125 0
0.0648438 0.0398438 0
0.051875 0.039375 0
0.076875 0.026875 0
0.0640625 0.0265625 0
0.05125 0.02625 0
0.1025 0.0275 0
0.0896875 0.0271875 0
0.076875 0.026875 0
0.10125 0.01375 0
0.0885937 0.0135938 0
0.0759375 0.0134375 0
0.1 0 0
0.0875 0 0
0.075 0 0
0.076875 0.026875 0
0.0640625 0.0265625 0
0.05125 0.02625 0
0.0759375 0.0134375 0
0.0632812 0.0132813 0
0.050625 0.013125 0
0.075 0 0
0.0625 0 0
0.05 0 0
0.0525 0.0525 0
0.039375 0.051875 0
0.02625 0.05125 0
0.051875 0.039375 0
0.0389063 0.0389063 0
0.0259375 0.0384375 0
0.05125 0.02625 0
0.0384375 0.0259375 0
0.025625 0.025625 0
0.02625 0.05125 0
0.013125 0.050625 0
0 0.05 0
0.0259375 0.0384375 0
0.0129688 0.0379688 0
0 0.0375 0
0.025625 0.025625 0
0.0128125 0.0253125 0
0 0.025 0
0.05125 0.02625 0
0.0384375 0.0259375 0
0.025625 0.025625 0
0.050625 0.013125 0
0.0379688 0.0129688 0
0.0253125 0.0128125 0
0.05 0 0
0.0375 0 0
0.025 0 0
0.025625 0.025625 0
0.0128125 0.0253125 0
0 0.025 0
0.0253125 0.0128125 0
0.0126563 0.0126563 0
0 0.0125 0
0.025 0 0
0.0125 0 0
0 0 0
0.2 0.1 0
0.18875 0.10125 0
0.1775 0.1025 0
0.2 0.0875 0
0.188594 0.0885938 0
0.177187 0.0896875 0
0.2 0.075 0
0.188438 0.0759375 0
0.176875 0.076875 0
0.1775 0.1025 0
0.16625 0.10375 0
0.155 0.105 0
0.177187 0.0896875 0
0.165781 0.0907813 0
0.154375 0.091875 0
0.176875 0.076875 0
0.165313 0.0778125 0
0.15375 0.07875 0
0.2 0.075 0
0.188438 0.0759375 0
0.176875 0.076875 0
0.2 0.0625 0
0.188281 0.0632813 0
0.176563 0.0640625 0
0.2 0.05 0
0.188125 0.050625 0
0.17625 0.05125 0
0.176875 0.076875 0
0.165313 0.0778125 0
0.15375 0.07875 0
0.176563 0.0640625 0
0.164844 0.0648438 0
0.153125 0.065625 0
0.17625 0.05125 0
0.164375 0.051875 0
0.1525 0.0525 0
0.155 0.105 0
0.14375 0.10625 0
0.1325 0.1075 0
0.154375 0.091875 0
0.142969 0.0929688 0
0.131562 0.0940625 0
0.15375 0.07875 0
0.142187 0.0796875 0
0.130625 0.080625 0
0.1325 0.1075 0
0.12125 0.10875 0
0.11 0.11 0
0.131562 0.0940625 0
0.120156 0.0951563 0
0.10875 0.09625 0
0.130625 0.080625 0
0.119063 0.0815625 0
0.1075 0.0825 0
0.15375 0.07875 0
0.142187 0.0796875 0
0.130625 0.080625 0
0.153125 0.065625 0
0.141406 0.0664062 0
0.129688 0.0671875 0
0.1525 0.0525 0
0.140625 0.053125 0
0.12875 0.05375 0
0.130625 0.080625 0
0.119063 0.0815625 0
0.1075 0.0825 0
0.129688 0.0671875 0
0.117969 0.0679688 0
0.10625 0.06875 0
0.12875 0.05375 0
0.116875 0.054375 0
0.105 0.055 0
0.2 0.05 0
0.188125 0.050625 0
0.17625 0.05125 0
0.2 0.0375 0
0.187969 0.0379688 0
0.175938 0.0384375 0
0.2 0.025 0
0.187813 0.0253125 0
0.175625 0.025625 0
0.17625 0.05125 0
0.164375 0.051875 0
0.1525 0.0525 0
0.175938 0.0384375 0
0.163906 0.0389063 0
0.151875 0.039375 0
0.175625 0.025625 0
0.163438 0.0259375 0
0.15125 0.02625 0
0.2 0.025 0
0.187813 0.0253125 0
0.175625 0.025625 0
0.2 0.0125 0
0.187656 0.0126563 0
0.175313 0.0128125 0
0.2 0 0
0.1875 0 0
0.175 0 0
0.175625 0.025625 0
0.163438 0.0259375 0
0.15125 0.02625 0
0.175313 0.0128125 0
0.162969 0.0129688 0
0.150625 0.013125 0
0.175 0 0
0.1625 0 0
0.15 0 0
0.1525 0.0525 0
0.140625 0.053125 0
0.12875 0.05375 0
0.151875 0.039375 0
0.139844 0.0398438 0
0.127813 0.0403125 0
0.15125 0.02625 0
0.139063 0.0265625 0
0.126875 0.026875 0
0.12875 0.05375 0
0.116875 0.054375 0
0.105 0.055 0
0.127813 0.0403125 0
0.115781 0.0407813 0
0.10375 0.04125 0
0.126875 0.026875 0
0.114688 0.0271875 0
0.1025 0.0275 0
0.15125 0.02625 0
0.139063 0.0265625 0
0.126875 0.026875 0
0.150625 0.013125 0
0.138281 0.0132813 0
0.125938 0.0134375 0
0.15 0 0
0.1375 0 0
0.125 0 0
0.126875 0.026875 0
0.114688 0.0271875 0
0.1025 0.0275 0
0.125938 0.0134375 0
0.113594 0.0135938 0
0.10125 0.01375 0
0.125 0 0
0.1125 0 0
0.1 0 0
0.1 0.2 0
0.0875 0.2 0
0.075 0.2 0
0.10125 0.18875 0
0.0885937 0.188594 0
0.0759375 0.188438 0
0.1025 0.1775 0
0.0896875 0.177187 0
0.076875 0.176875 0
0.075 0.2 0
0.0625 0.2 0
0.05 0.2 0
0.0759375 0.188438 0
0.0632813 0.188281 0
0.050625 0.188125 0
0.076875 0.176875 0
0.0640625 0.176563 0
0.05125 0.17625 0
0.1025 0.1775 0
0.0896875 0.177187 0
0.076875 0.176875 0
0.10375 0.16625 0
0.0907813 0.165781 0
0.0778125 0.165313 0
0.105 0.155 0
0.091875 0.154375 0
0.07875 0.15375 0
0.076875 0.176875 0
0.0640625 0.176563 0
0.05125 0.17625 0
0.0778125 0.165313 0
0.0648438 0.164844 0
0.051875 0.164375 0
0.07875 0.15375 0
0.065625 0.153125 0
0.0525 0.1525 0
0.05 0.2 0
0.0375 0.2 0
0.025 0.2 0
0.050625 0.188125 0
0.0379688 0.187969 0
0.0253125 0.187813 0
0.05125 0.17625 0
0.0384375 0.175938 0
0.025625 0.175625 0
0.025 0.2 0
0.0125 0.2 0
0 0.2 0
0.0253125 0.187813 0
0.0126563 0.187656 0
0 0.1875 0
0.025625 0.175625 0
0.0128125 0.175313 0
0 0.175 0
0.05125 0.17625 0
0.0384375 0.175938 0
0.025625 0.175625 0
0.051875 0.164375 0
0.0389063 0.163906 0
0.0259375 0.163438 0
0.0525 0.1525 0
0.039375 0.151875 0
0.02625 0.15125 0
0.025625 0.175625 0
0.0128125 0.175313 0
0 0.175 0
0.0259375 0.163438 0
0.0129688 0.162969 0
0 0.1625 0
0.02625 0.15125 0
0.013125 0.150625 0
0 0.15 0
0.105 0.155 0
0.091875 0.154375 0
0.07875 0.15375 0
0.10625 0.14375 0
0.0929688 0.142969 0
0.0796875 0.142187 0
0.1075 0.1325 0
0.0940625 0.131562 0
0.080625 0.130625 0
0.07875 0.15375 0
0.065625 0.153125 0
0.0525 0.1525 0
0.0796875 0.142187 0
0.0664063 0.141406 0
0.053125 0.140625 0
0.080625 0.130625 0
0.0671875 0.129688 0
0.05375 0.12875 0
0.1075 0.1325 0
0.0940625 0.131562 0
0.080625 0.130625 0
0.10875 0.12125 0
0.0951563 0.120156 0
0.0815625 0.119063 0
0.11 0.11 0
0.09625 0.10875 0
0.0825 0.1075 0
0.080625 0.130625 0
0.0671875 0.129688 0
0.05375 0.12875 0
0.0815625 0.119063 0
0.0679688 0.117969 0
0.054375 0.116875 0
0.0825 0.1075 0
0.06875 0.10625 0
0.055 0.105 0
0.0525 0.1525 0
0.039375 0.151875 0
0.02625 0.15125 0
0.053125 0.140625 0
0.0398438 0.139844 0
0.0265625 0.139063 0
0.05375 0.12875 0
0.0403125 0.127813 0
0.026875 0.126875 0
0.02625 0.15125 0
0.013125 0.150625 0
0 0.15 0
0.0265625 0.139063 0
0.0132813 0.138281 0
0 0.1375 0
0.026875 0.126875 0
0.0134375 0.125938 0
0 0.125 0
0.05375 0.12875 0
0.0403125 0.127813 0
0.026875 0.126875 0
0.054375 0.116875 0
0.0407813 0.115781 0
0.0271875 0.114688 0
0.055 0.105 0
0.04125 0.10375 0
0.0275 0.1025 0
0.026875 0.126875 0
0.0134375 0.125938 0
0 0.125 0
0.0271875 0.114688 0
0.0135938 0.113594 0
0 0.1125 0
0.0275 0.1025 0
0.01375 0.10125 0
0 0.1 0
0.29 0.11 0
0.27875 0.10875 0
0.2675 0.1075 0
0.29125 0.09625 0
0.279844 0.0951563 0
0.268437 0.0940625 0
0.2925 0.0825 0
0.280938 0.0815625 0
0.269375 0.080625 0
0.2675 0.1075 0
0.25625 0.10625 0
0.245 0.105 0
0.268437 0.0940625 0
0.257031 0.0929688 0
0.245625 0.091875 0
0.269375 0.080625 0
0.257812 0.0796875 0
0.24625 0.07875 0
0.2925 0.0825 0
0.280938 0.0815625 0
0.269375 0.080625 0
0.29375 0.06875 0
0.282031 0.0679688 0
0.270313 0.0671875 0
0.295 0.055 0
0.283125 0.054375 0
0.27125 0.05375 0
0.269375 0.080625 0
0.257812 0.0796875 0
0.24625 0.07875 0
0.270313 0.0671875 0
0.258594 0.0664062 0
0.246875 0.065625 0
0.27125 0.05375 0
0.259375 0.053125 0
0.2475 0.0525 0
0.245 0.105 0
0.23375 0.10375 0
0.2225 0.1025 0
0.245625 0.091875 0
0.234219 0.0907813 0
0.222813 0.0896875 0
0.24625 0.07875 0
0.234687 0.0778125 0
0.223125 0.076875 0
0.2225 0.1025 0
0.21125 0.10125 0
0.2 0.1 0
0.222813 0.0896875 0
0.211406 0.0885937 0
0.2 0.0875 0
0.223125 0.076875 0
0.211563 0.0759375 0
0.2 0.075 0
0.24625 0.07875 0
0.234687 0.0778125 0
0.223125 0.076875 0
0.246875 0.065625 0
0.235156 0.0648438 0
0.223438 0.0640625 0
0.2475 0.0525 0
0.235625 0.051875 0
0.22375 0.05125 0
0.223125 0.076875 0
0.211563 0.0759375 0
0.2 0.075 0
0.223438 0.0640625 0
0.211719 0.0632813 0
0.2 0.0625 0
0.22375 0.05125 0
0.211875 0.050625 0
0.2 0.05 0
0.295 0.055 0
0.283125 0.054375 0
0.27125 0.05375 0
0.29625 0.04125 0
0.284219 0.0407813 0
0.272188 0.0403125 0
0.2975 0.0275 0
0.285312 0.0271875 0
0.273125 0.026875 0
0.27125 0.05375 0
0.259375 0.053125 0
0.2475 0.0525 0
0.272188 0.0403125 0
0.260156 0.0398438 0
0.248125 0.039375 0
0.273125 0.026875 0
0.260937 0.0265625 0
0.24875 0.02625 0
0.2975 0.0275 0
0.285312 0.0271875 0
0.273125 0.026875 0
0.29875 0.01375 0
0.286406 0.0135938 0
0.274062 0.0134375 0
0.3 0 0
0.2875 0 0
0.275 0 0
0.273125 0.026875 0
0.260937 0.0265625 0
0.24875 0.02625 0
0.274062 0.0134375 0
0.261719 0.0132813 0
0.249375 0.013125 0
0.275 0 0
0.2625 0 0
0.25 0 0
0.2475 0.0525 0
0.235625 0.051875 0
0.22375 0.05125 0
0.248125 0.039375 0
[...]
POINT_DATA 5760
SCALARS x_velo double 1
LOOKUP_TABLE default
0.125666 0.121265 0.118337 0.123087 0.117563 0.113262 0.118011 0.111766 0.106461 0.118337 0.116048 0.114498 0.113262 0.109685 0.106925 0.106461 0.101863 0.0980634 0.118011 0.111766 0.106461 0.110869 0.104125 0.098092 0.101562 0.0945897 0.0880885 0.106461 0.101863 0.0980634 0.098092 0.0926777 0.0879954 0.0880885 0.0820933 0.0767146 0.114498 0.113252 0.112364 0.106925 0.104674 0.103032 0.0980634 0.0949105 0.092555 0.112364 0.111489 0.110648 0.103032 0.101697 0.100721 0.092555 0.0907782 0.0896788 0.0980634 0.0949105 0.092555 0.0879954 0.0840224 0.0809647 0.0767146 0.0720325 0.0683034 0.092555 0.0907782 0.0896788 0.0809647 0.0787327 0.0775208 0.0683034 0.0655991 0.0642475 0.101562 0.0945897 0.0880885 0.0893553 0.082451 0.0758665 0.0716196 0.065518 0.0595776 0.0880885 0.0820933 0.0767146 0.0758665 0.0696561 0.0639214 0.0595776 0.0538832 0.0484988 0.0716196 0.065518 0.0595776 0.0441858 0.0400662 0.0360388 0 0 0 0.0595776 0.0538832 0.0484988 0.0360388 0.0321416 0.0283935 0 0 0 0.0767146 0.0720325 0.0683034 0.0639214 0.0587881 0.0545172 0.0484988 0.0435405 0.0392252 0.0683034 0.0655991 0.0642475 0.0545172 0.0513557 0.0498587 0.0392252 0.0359019 0.0343546 0.0484988 0.0435405 0.0392252 0.0283935 0.024865 0.0216356 0 0 0 0.0392252 0.0359019 0.0343546 0.0216356 0.0190176 0.017735 0 0 0 0.180459 0.177825 0.172222 0.175838 0.172429 0.166749 0.167675 0.164025 0.158611 0.172222 0.16453 0.155133 0.166749 0.15957 0.151194 0.158611 0.152078 0.144662 0.167675 0.164025 0.158611 0.157605 0.154077 0.149121 0.144918 0.1418 0.137436 0.158611 0.152078 0.144662 0.149121 0.143233 0.136576 0.137436 0.132217 0.126261 0.155133 0.145943 0.137487 0.151194 0.142943 0.135173 0.144662 0.137252 0.1301 0.137487 0.130749 0.125666 0.135173 0.128516 0.123087 0.1301 0.123658 0.118011 0.144662 0.137252 0.1301 0.136576 0.129791 0.123057 0.126261 0.120042 0.113692 0.1301 0.123658 0.118011 0.123057 0.116718 0.110869 0.113692 0.107503 0.101562 0.144918 0.1418 0.137436 0.127602 0.125218 0.12168 0.101834 0.100346 0.0978728 0.137436 0.132217 0.126261 0.12168 0.117315 0.112195 0.0978728 0.0946334 0.09068 0.101834 0.100346 0.0978728 0.0620125 0.0614923 0.0602566 0 0 0 0.0978728 0.0946334 0.09068 0.0602566 0.0585038 0.0561942 0 0 0 0.126261 0.120042 0.113692 0.112195 0.106696 0.100916 0.09068 0.0862885 0.0815384 0.113692 0.107503 0.101562 0.100916 0.0951085 0.0893553 0.0815384 0.0766302 0.0716196 0.09068 0.0862885 0.0815384 0.0561942 0.0535501 0.0505838 0 0 0 0.0815384 0.0766302 0.0716196 0.0505838 0.0474539 0.0441858 0 0 0 0.0969699 0.110752 0.12153 0.0966703 0.110279 0.120892 0.099395 0.111368 0.120963 0.12153 0.130234 0.137087 0.120892 0.12946 0.136236 0.120963 0.128767 0.135039 0.099395 0.111368 0.120963 0.104497 0.113803 0.121613 0.11068 0.11677 0.122359 0.120963 0.128767 0.135039 0.121613 0.128082 0.13345 0.122359 0.127132 0.131313 0.137087 0.142508 0.146521 0.136236 0.14159 0.14556 0.135039 0.140014 0.143719 0.146521 0.149031 0.149911 0.14556 0.148032 0.148907 0.143719 0.146015 0.146788 0.135039 0.140014 0.143719 0.13345 0.137735 0.140959 0.131313 0.134687 0.137266 0.143719 0.146015 0.146788 0.140959 0.142925 0.143553 0.137266 0.138796 0.139203 0.11068 0.11677 0.122359 0.116706 0.119551 0.122757 0.121458 0.121483 0.122388 0.122359 0.127132 0.131313 0.122757 0.12567 0.128472 0.122388 0.123441 0.124788 0.121458 0.121483 0.122388 0.124464 0.122092 0.120945 0.125666 0.121265 0.118337 0.122388 0.123441 0.124788 0.120945 0.12026 0.12014 0.118337 0.116048 0.114498 0.131313 0.134687 0.137266 0.128472 0.130776 0.132582 0.124788 0.125935 0.126889 0.137266 0.138796 0.139203 0.132582 0.133585 0.133737 0.126889 0.127306 0.127156 0.124788 0.125935 0.126889 0.12014 0.120096 0.120147 0.114498 0.113252 0.112364 0.126889 0.127306 0.127156 0.120147 0.119938 0.11946 0.112364 0.111489 0.110648 0.139099 0.14457 0.150905 0.148776 0.154019 0.159662 0.15182 0.156433 0.16106 0.150905 0.157738 0.164943 0.159662 0.165238 0.170552 0.16106 0.165267 0.168825 0.15182 0.156433 0.16106 0.148673 0.152617 0.156349 0.139365 0.142779 0.145879 0.16106 0.165267 0.168825 0.156349 0.159495 0.161869 0.145879 0.148368 0.150075 0.164943 0.171603 0.177122 0.170552 0.174761 0.177467 0.168825 0.17114 0.171917 0.177122 0.180327 0.180459 0.177467 0.177933 0.175838 0.171917 0.170813 0.167675 0.168825 0.17114 0.171917 0.161869 0.163046 0.162831 0.150075 0.150705 0.150107 0.171917 0.170813 0.167675 0.162831 0.161049 0.157605 0.150107 0.148192 0.144918 0.139365 0.142779 0.145879 0.122785 0.125768 0.128465 0.0967433 0.0992021 0.101462 0.145879 0.148368 0.150075 0.128465 0.130623 0.132089 0.101462 0.103332 0.104669 0.0967433 0.0992021 0.101462 0.0577511 0.059297 0.0607813 0 0 0 0.101462 0.103332 0.104669 0.0607813 0.0620676 0.0630634 0 0 0 0.150075 0.150705 0.150107 0.132089 0.132631 0.13211 0.104669 0.105293 0.105068 0.150107 0.148192 0.144918 0.13211 0.130463 0.127602 0.105068 0.103935 0.101834 0.104669 0.105293 0.105068 0.0630634 0.063651 0.063701 0 0 0 0.105068 0.103935 0.101834 0.063701 0.0631983 0.0620125 0 0 0 0.122072 0.123552 0.125124 0.122408 0.124668 0.127141 0.120185 0.12296 0.12603 0.125124 0.126842 0.128689 0.127141 0.129885 0.132898 0.12603 0.129441 0.133199 0.120185 0.12296 0.12603 0.114832 0.117853 0.121214 0.105667 0.108668 0.112025 0.12603 0.129441 0.133199 0.121214 0.124951 0.129071 0.112025 0.115767 0.119912 0.128689 0.130764 0.133072 0.132898 0.136247 0.139936 0.133199 0.137315 0.141779 0.133072 0.135816 0.139099 0.139936 0.144095 0.148776 0.141779 0.146614 0.15182 0.133199 0.137315 0.141779 0.129071 0.133549 0.138352 0.119912 0.124414 0.129237 0.141779 0.146614 0.15182 0.138352 0.143412 0.148673 0.129237 0.134259 0.139365 0.105667 0.108668 0.112025 0.0916617 0.0943762 0.0974234 0.0712703 0.0734255 0.0758539 0.112025 0.115767 0.119912 0.0974234 0.100834 0.104639 0.0758539 0.0785822 0.0816559 0.0712703 0.0734255 0.0758539 0.0420296 0.0433217 0.0447757 0 0 0 0.0758539 0.0785822 0.0816559 0.0447757 0.0464069 0.0482673 0 0 0 0.119912 0.124414 0.129237 0.104639 0.108795 0.11328 0.0816559 0.0850459 0.088751 0.129237 0.134259 0.139365 0.11328 0.11797 0.122785 0.088751 0.0926773 0.0967433 0.0816559 0.0850459 0.088751 0.0482673 0.0503304 0.0526312 0 0 0 0.088751 0.0926773 0.0967433 0.0526312 0.0551023 0.0577511 0 0 0 0.0925089 0.0881033 0.0830671 0.0934842 0.0891815 0.0842478 0.0962091 0.0922897 0.0877768 0.0830671 0.0773402 0.0707661 0.0842478 0.0786233 0.0721501 0.0877768 0.0826172 0.0766547 0.0962091 0.0922897 0.0877768 0.100344 0.0970639 0.0932635 0.105386 0.102944 0.100089 0.0877768 0.0826172 0.0766547 0.0932635 0.088904 0.0838406 0.100089 0.0968011 0.0929555 0.0707661 0.0633438 0.0548939 0.0721501 0.0648238 0.0564609 0.0766547 0.0698865 0.06212 0.0548939 0.0456285 0.0355512 0.0564609 0.0472756 0.0372317 0.06212 0.0535491 0.0440874 0.0766547 0.0698865 0.06212 0.0838406 0.0780775 0.0714226 0.0929555 0.0885762 0.0834923 0.06212 0.0535491 0.0440874 0.0714226 0.0640544 0.0558118 0.0834923 0.0778758 0.0715856 0.105386 0.102944 0.100089 0.110707 0.109234 0.107474 0.115678 0.115225 0.114621 0.100089 0.0968011 0.0929555 0.107474 0.105432 0.103011 0.114621 0.113894 0.112979 0.115678 0.115225 0.114621 0.119648 0.120198 0.120724 0.122072 0.123552 0.125124 0.114621 0.113894 0.112979 0.120724 0.121274 0.121811 0.125124 0.126842 0.128689 0.0929555 0.0885762 0.0834923 0.103011 0.100267 0.0970711 0.112979 0.111962 0.110776 0.0834923 0.0778758 0.0715856 0.0970711 0.0936125 0.0897498 0.110776 0.109622 0.108512 0.112979 0.111962 0.110776 0.121811 0.12244 0.123135 0.128689 0.130764 0.133072 0.110776 0.109622 0.108512 0.123135 0.124119 0.125388 0.133072 0.135816 0.139099 0.124093 0.125275 0.126522 0.120832 0.121121 0.121374 0.11628 0.115606 0.114776 0.126522 0.1279 0.129402 0.121374 0.121644 0.121906 0.114776 0.113823 0.112689 0.11628 0.115606 0.114776 0.110931 0.109278 0.107336 0.105391 0.102807 0.099811 0.114776 0.113823 0.112689 0.107336 0.105114 0.102522 0.099811 0.0963852 0.0924091 0.129402 0.131146 0.133153 0.121906 0.122274 0.122738 0.112689 0.111467 0.110101 0.133153 0.135642 0.138739 0.122738 0.123529 0.124654 0.110101 0.108797 0.107574 0.112689 0.111467 0.110101 0.102522 0.0996179 0.0962852 0.0924091 0.0879113 0.0827278 0.110101 0.108797 0.107574 0.0962852 0.0927138 0.0887708 0.0827278 0.0770338 0.0706963 0.105391 0.102807 0.099811 0.100249 0.0968641 0.0929612 0.0961 0.0921119 0.0875325 0.099811 0.0963852 0.0924091 0.0929612 0.0885025 0.0833462 0.0875325 0.082309 0.0762873 0.0961 0.0921119 0.0875325 0.0934162 0.0890797 0.0841135 0.0925089 0.0881033 0.0830671 0.0875325 0.082309 0.0762873 0.0841135 0.0784579 0.0719562 0.0830671 0.0773402 0.0707661 0.0924091 0.0879113 0.0827278 0.0833462 0.0775004 0.0707792 0.0762873 0.0694677 0.0616621 0.0827278 0.0770338 0.0706963 0.0707792 0.0633646 0.0551048 0.0616621 0.0530676 0.0436057 0.0762873 0.0694677 0.0616621 0.0719562 0.0646054 0.0562247 0.0707661 0.0633438 0.0548939 0.0616621 0.0530676 0.0436057 0.0562247 0.04703 0.0369895 0.0548939 0.0456285 0.0355512 0 0 0 0.0461407 0.0474943 0.0489922 0.0770934 0.0792995 0.0817445 0 0 0 0.0489922 0.0506489 0.0525087 0.0817445 0.0844479 0.0874414 0.0770934 0.0792995 0.0817445 0.0979066 0.100628 0.10363 0.111625 0.114574 0.117818 0.0817445 0.0844479 0.0874414 0.10363 0.106932 0.110551 0.117818 0.121374 0.125248 0 0 0 0.0525087 0.0545393 0.0567619 0.0874414 0.0906835 0.0941559 0 0 0 0.0567619 0.0591082 0.0615737 0.0941559 0.097759 0.101401 0.0874414 0.0906835 0.0941559 0.110551 0.114429 0.118532 0.125248 0.129385 0.133745 0.0941559 0.097759 0.101401 0.118532 0.122734 0.126958 0.133745 0.138205 0.142658 0.111625 0.114574 0.117818 0.12009 0.122998 0.126185 0.124505 0.127109 0.129959 0.117818 0.121374 0.125248 0.126185 0.129681 0.133489 0.129959 0.133102 0.136548 0.124505 0.127109 0.129959 0.125629 0.12766 0.129871 0.124093 0.125275 0.126522 0.129959 0.133102 0.136548 0.129871 0.132325 0.135032 0.126522 0.1279 0.129402 0.125248 0.129385 0.133745 0.133489 0.137583 0.141935 0.136548 0.140316 0.144411 0.133745 0.138205 0.142658 0.141935 0.146482 0.151183 0.144411 0.148868 0.153703 0.136548 0.140316 0.144411 0.135032 0.138074 0.141474 0.129402 0.131146 0.133153 0.144411 0.148868 0.153703 0.141474 0.145376 0.149846 0.133153 0.135642 0.138739 0 0 0 0.0615737 0.062942 0.064211 0.101401 0.103512 0.105377 0 0 0 0.064211 0.0652668 0.0660238 0.105377 0.106837 0.107771 0.101401 0.103512 0.105377 0.126958 0.129479 0.131672 0.142658 0.145583 0.148158 0.105377 0.106837 0.107771 0.131672 0.133324 0.134306 0.148158 0.150125 0.15134 0 0 0 0.0660238 0.0663904 0.0662548 0.107771 0.108037 0.107529 0 0 0 0.0662548 0.0656136 0.0643569 0.107529 0.106211 0.104043 0.107771 0.108037 0.107529 0.134306 0.134439 0.133611 0.15134 0.151564 0.150674 0.107529 0.106211 0.104043 0.133611 0.131786 0.128895 0.150674 0.148618 0.14537 0.142658 0.145583 0.148158 0.151183 0.154713 0.157998 0.153703 0.158053 0.162392 0.148158 0.150125 0.15134 0.157998 0.160696 0.162641 0.162392 0.166301 0.169557 0.153703 0.158053 0.162392 0.149846 0.154997 0.16055 0.138739 0.1442 0.150577 0.162392 0.166301 0.169557 0.16055 0.166045 0.171285 0.150577 0.157512 0.164885 0.15134 0.151564 0.150674 0.162641 0.163461 0.16299 0.169557 0.171614 0.172195 0.150674 0.148618 0.14537 0.16299 0.161097 0.157709 0.172195 0.171014 0.16794 0.169557 0.171614 0.172195 0.171285 0.175443 0.17813 0.164885 0.171779 0.17759 0.172195 0.171014 0.16794 0.17813 0.178635 0.176662 0.17759 0.181117 0.181583 0.129367 0.125519 0.123157 0.127808 0.125932 0.125279 0.124402 0.124856 0.126183 0.123157 0.121417 0.120392 0.125279 0.125063 0.125383 0.126183 0.127629 0.129338 0.124402 0.124856 0.126183 0.119208 0.122414 0.125971 0.112713 0.119096 0.124964 0.126183 0.127629 0.129338 0.125971 0.129205 0.132298 0.124964 0.129989 0.134395 0.120392 0.119605 0.11909 0.125383 0.125713 0.126063 0.129338 0.130787 0.131978 0.11909 0.118482 0.117787 0.126063 0.126065 0.125706 0.131978 0.132563 0.13251 0.129338 0.130787 0.131978 0.132298 0.134842 0.136833 0.134395 0.137954 0.140674 0.131978 0.132563 0.13251 0.136833 0.137969 0.138199 0.140674 0.142305 0.142772 0.112713 0.119096 0.124964 0.10604 0.11557 0.123588 0.100436 0.112557 0.12229 0.124964 0.129989 0.134395 0.123588 0.130242 0.135774 0.12229 0.130217 0.136595 0.100436 0.112557 0.12229 0.0971956 0.11088 0.12156 0.0969699 0.110752 0.12153 0.12229 0.130217 0.136595 0.12156 0.130189 0.137017 0.12153 0.130234 0.137087 0.134395 0.137954 0.140674 0.135774 0.140193 0.143519 0.136595 0.141656 0.145427 0.140674 0.142305 0.142772 0.143519 0.145558 0.14623 0.145427 0.14777 0.148572 0.136595 0.141656 0.145427 0.137017 0.142413 0.146415 0.137087 0.142508 0.146521 0.145427 0.14777 0.148572 0.146415 0.14891 0.149799 0.146521 0.149031 0.149911 0 0 0 0.0643569 0.0637261 0.0624505 0.104043 0.102407 0.0999058 0 0 0 0.0624505 0.0606949 0.0584213 0.0999058 0.0967151 0.0928766 0.104043 0.102407 0.0999058 0.128895 0.126415 0.122931 0.14537 0.142247 0.138049 0.0999058 0.0967151 0.0928766 0.122931 0.11872 0.113838 0.138049 0.133108 0.127521 0 0 0 0.0584213 0.0558182 0.0528888 0.0928766 0.0886207 0.0840104 0 0 0 0.0528888 0.0497757 0.046494 0.0840104 0.0792218 0.0743005 0.0928766 0.0886207 0.0840104 0.113838 0.108605 0.103102 0.127521 0.1217 0.115758 0.0840104 0.0792218 0.0743005 0.103102 0.0975539 0.0920353 0.115758 0.109957 0.104378 0.14537 0.142247 0.138049 0.157709 0.154269 0.149575 0.16794 0.164443 0.159337 0.138049 0.133108 0.127521 0.149575 0.144066 0.137884 0.159337 0.153219 0.146311 0.16794 0.164443 0.159337 0.176662 0.173445 0.168063 0.181583 0.17923 0.173916 0.159337 0.153219 0.146311 0.168063 0.161254 0.153313 0.173916 0.16651 0.157412 0.127521 0.1217 0.115758 0.137884 0.131595 0.12536 0.146311 0.139427 0.132798 0.115758 0.109957 0.104378 0.12536 0.119492 0.114077 0.132798 0.126848 0.121654 0.146311 0.139427 0.132798 0.153313 0.145519 0.138205 0.157412 0.148549 0.140446 0.132798 0.126848 0.121654 0.138205 0.131986 0.126963 0.140446 0.134078 0.129367 0 0 0 0.046494 0.0423661 0.038285 0.0743005 0.068336 0.0624789 0 0 0 0.038285 0.0343056 0.0304499 0.0624789 0.056834 0.0514751 0.0743005 0.068336 0.0624789 0.0920353 0.0854228 0.0790862 0.104378 0.0978205 0.0916989 0.0624789 0.056834 0.0514751 0.0790862 0.0731015 0.0675794 0.0916989 0.08607 0.0810509 0 0 0 0.0304499 0.0268062 0.023465 0.0514751 0.0465434 0.0422798 0 0 0 0.023465 0.0207653 0.0194471 0.0422798 0.0390324 0.0375446 0.0514751 0.0465434 0.0422798 0.0675794 0.0626654 0.0586273 0.0810509 0.0767264 0.0733437 0.0422798 0.0390324 0.0375446 0.0586273 0.0556753 0.0542925 0.0733437 0.0709161 0.0696907 0.104378 0.0978205 0.0916989 0.114077 0.107814 0.102231 0.121654 0.115914 0.111089 0.0916989 0.08607 0.0810509 0.102231 0.0972593 0.0930118 0.111089 0.106967 0.103632 0.121654 0.115914 0.111089 0.126963 0.121948 0.118151 0.129367 0.125519 0.123157 0.111089 0.106967 0.103632 0.118151 0.115075 0.112801 0.123157 0.121417 0.120392 0.0810509 0.0767264 0.0733437 0.0930118 0.0894554 0.0867739 0.103632 0.10091 0.0989241 0.0733437 0.0709161 0.0696907 0.0867739 0.0848226 0.0837392 0.0989241 0.0974128 0.0964381 0.103632 0.10091 0.0989241 0.112801 0.110986 0.109708 0.120392 0.119605 0.11909 0.0989241 0.0974128 0.0964381 0.109708 0.108632 0.107787 0.11909 0.118482 0.117787 0.113547 0.11378 0.114124 0.111222 0.111515 0.111951 0.107626 0.107936 0.108403 0.114124 0.114627 0.115348 0.111951 0.112594 0.113519 0.108403 0.1091 0.110112 0.107626 0.107936 0.108403 0.102216 0.102502 0.102944 0.0941585 0.0943918 0.0947637 0.108403 0.1091 0.110112 0.102944 0.103612 0.104599 0.0947637 0.0953378 0.0962023 0.115348 0.116349 0.117709 0.113519 0.114825 0.116632 0.110112 0.111566 0.113609 0.117709 0.119588 0.122072 0.116632 0.119113 0.122408 0.113609 0.116417 0.120185 0.110112 0.111566 0.113609 0.104599 0.10604 0.108103 0.0962023 0.0974912 0.0993806 0.113609 0.116417 0.120185 0.108103 0.110958 0.114832 0.0993806 0.102018 0.105667 0.0941585 0.0943918 0.0947637 0.0822509 0.0824152 0.0826898 0.0646302 0.0647242 0.0648937 0.0947637 0.0953378 0.0962023 0.0826898 0.0831253 0.0837981 0.0648937 0.0651729 0.0656182 0.0646302 0.0647242 0.0648937 0.0386 0.0386355 0.0387098 0 0 0 0.0648937 0.0651729 0.0656182 0.0387098 0.0388382 0.0390533 0 0 0 0.0962023 0.0974912 0.0993806 0.0837981 0.0848264 0.0863778 0.0656182 0.0663187 0.0674202 0.0993806 0.102018 0.105667 0.0863778 0.088569 0.0916617 0.0674202 0.0689868 0.0712703 0.0656182 0.0663187 0.0674202 0.0390533 0.0393979 0.039978 0 0 0 0.0674202 0.0689868 0.0712703 0.039978 0.0408002 0.0420296 0 0 0 0.113211 0.113204 0.113196 0.110789 0.110782 0.110774 0.107185 0.107178 0.10717 0.113196 0.11319 0.113187 0.110774 0.110768 0.110769 0.10717 0.107164 0.107163 0.107185 0.107178 0.10717 0.10184 0.101833 0.101824 0.0938936 0.093887 0.0938778 0.10717 0.107164 0.107163 0.101824 0.101817 0.101813 0.0938778 0.0938692 0.0938615 0.113187 0.113201 0.113242 0.110769 0.110788 0.11084 0.107163 0.107181 0.107232 0.113242 0.113343 0.113547 0.11084 0.110967 0.111222 0.107232 0.107362 0.107626 0.107163 0.107181 0.107232 0.101813 0.101825 0.101864 0.0938615 0.0938649 0.0938867 0.107232 0.107362 0.107626 0.101864 0.101978 0.102216 0.0938867 0.0939707 0.0941585 0.0938936 0.093887 0.0938778 0.0821098 0.0821038 0.0820949 0.064592 0.0645874 0.0645797 0.0938778 0.0938692 0.0938615 0.0820949 0.0820857 0.082075 0.0645797 0.0645714 0.0645601 0.064592 0.0645874 0.0645797 0.0386154 0.0386128 0.0386079 0 0 0 0.0645797 0.0645714 0.0645601 0.0386079 0.0386026 0.0385942 0 0 0 0.0938615 0.0938649 0.0938867 0.082075 0.0820707 0.082075 0.0645601 0.0645516 0.0645431 0.0938867 0.0939707 0.0941585 0.082075 0.0821251 0.0822509 0.0645431 0.0645636 0.0646302 0.0645601 0.0645516 0.0645431 0.0385942 0.0385873 0.0385755 0 0 0 0.0645431 0.0645636 0.0646302 0.0385755 0.0385778 0.0386 0 0 0 0.117869 0.117859 0.117842 0.117812 0.117801 0.117782 0.11769 0.117678 0.117659 0.117842 0.117805 0.117741 0.117782 0.117743 0.117677 0.117659 0.117621 0.117559 0.11769 0.117678 0.117659 0.117485 0.117473 0.117455 0.117163 0.117151 0.117135 0.117659 0.117621 0.117559 0.117455 0.117421 0.117367 0.117135 0.117108 0.117065 0.117741 0.11762 0.117418 0.117677 0.117556 0.117355 0.117559 0.117448 0.117267 0.117418 0.117026 0.116369 0.117355 0.116974 0.116338 0.117267 0.116926 0.116363 0.117559 0.117448 0.117267 0.117367 0.117274 0.117127 0.117065 0.116996 0.116891 0.117267 0.116926 0.116363 0.117127 0.116852 0.116401 0.116891 0.116697 0.116388 0.117163 0.117151 0.117135 0.116674 0.116664 0.11665 0.115939 0.11593 0.115919 0.117135 0.117108 0.117065 0.11665 0.116629 0.116599 0.115919 0.115904 0.115886 0.115939 0.11593 0.115919 0.114844 0.114836 0.114827 0.113211 0.113204 0.113196 0.115919 0.115904 0.115886 0.114827 0.114817 0.114808 0.113196 0.11319 0.113187 0.117065 0.116996 0.116891 0.116599 0.116556 0.116496 0.115886 0.115867 0.11585 0.116891 0.116697 0.116388 0.116496 0.11639 0.116233 0.11585 0.115829 0.115817 0.115886 0.115867 0.11585 0.114808 0.114808 0.114827 0.113187 0.113201 0.113242 0.11585 0.115829 0.115817 0.114827 0.114876 0.114989 0.113242 0.113343 0.113547 0.116369 0.115669 0.114673 0.116338 0.115664 0.114708 0.116363 0.115767 0.114923 0.114673 0.113263 0.111305 0.114708 0.113356 0.111481 0.114923 0.113731 0.11208 0.116363 0.115767 0.114923 0.116401 0.115927 0.115255 0.116388 0.116064 0.115606 0.114923 0.113731 0.11208 0.115255 0.114308 0.112996 0.115606 0.11496 0.114069 0.111305 0.108533 0.104668 0.111481 0.108827 0.105125 0.11208 0.109739 0.106469 0.104668 0.0995082 0.0925089 0.105125 0.100186 0.0934842 0.106469 0.102116 0.0962091 0.11208 0.109739 0.106469 0.112996 0.11113 0.108514 0.114069 0.112789 0.11098 0.106469 0.102116 0.0962091 0.108514 0.105048 0.100344 0.11098 0.108608 0.105386 0.116388 0.116064 0.115606 0.116233 0.116072 0.115844 0.115817 0.115813 0.11581 0.115606 0.11496 0.114069 0.115844 0.115526 0.11509 0.11581 0.115813 0.115824 0.115817 0.115813 0.11581 0.114989 0.115121 0.115315 0.113547 0.11378 0.114124 0.11581 0.115813 0.115824 0.1153