# vtk DataFile Version 3.0
#This file was generated by the deal.II library on 2024/9/17 at 11:45:26
ASCII
DATASET UNSTRUCTURED_GRID

POINTS 5760 double
0.11 0.11 0
0.09625 0.10875 0
0.0825 0.1075 0
0.10875 0.09625 0
0.0951562 0.0951563 0
0.0815625 0.0940625 0
0.1075 0.0825 0
0.0940625 0.0815625 0
0.080625 0.080625 0
0.0825 0.1075 0
0.06875 0.10625 0
0.055 0.105 0
0.0815625 0.0940625 0
0.0679688 0.0929688 0
0.054375 0.091875 0
0.080625 0.080625 0
0.0671875 0.0796875 0
0.05375 0.07875 0
0.1075 0.0825 0
0.0940625 0.0815625 0
0.080625 0.080625 0
0.10625 0.06875 0
0.0929688 0.0679688 0
0.0796875 0.0671875 0
0.105 0.055 0
0.091875 0.054375 0
0.07875 0.05375 0
0.080625 0.080625 0
0.0671875 0.0796875 0
0.05375 0.07875 0
0.0796875 0.0671875 0
0.0664063 0.0664062 0
0.053125 0.065625 0
0.07875 0.05375 0
0.065625 0.053125 0
0.0525 0.0525 0
0.055 0.105 0
0.04125 0.10375 0
0.0275 0.1025 0
0.054375 0.091875 0
0.0407813 0.0907813 0
0.0271875 0.0896875 0
0.05375 0.07875 0
0.0403125 0.0778125 0
0.026875 0.076875 0
0.0275 0.1025 0
0.01375 0.10125 0
0 0.1 0
0.0271875 0.0896875 0
0.0135938 0.0885938 0
0 0.0875 0
0.026875 0.076875 0
0.0134375 0.0759375 0
0 0.075 0
0.05375 0.07875 0
0.0403125 0.0778125 0
0.026875 0.076875 0
0.053125 0.065625 0
0.0398438 0.0648438 0
0.0265625 0.0640625 0
0.0525 0.0525 0
0.039375 0.051875 0
0.02625 0.05125 0
0.026875 0.076875 0
0.0134375 0.0759375 0
0 0.075 0
0.0265625 0.0640625 0
0.0132813 0.0632813 0
0 0.0625 0
0.02625 0.05125 0
0.013125 0.050625 0
0 0.05 0
0.105 0.055 0
0.091875 0.054375 0
0.07875 0.05375 0
0.10375 0.04125 0
0.0907813 0.0407813 0
0.0778125 0.0403125 0
0.1025 0.0275 0
0.0896875 0.0271875 0
0.076875 0.026875 0
0.07875 0.05375 0
0.065625 0.053125 0
0.0525 0.0525 0
0.0778125 0.0403125 0
0.0648438 0.0398438 0
0.051875 0.039375 0
0.076875 0.026875 0
0.0640625 0.0265625 0
0.05125 0.02625 0
0.1025 0.0275 0
0.0896875 0.0271875 0
0.076875 0.026875 0
0.10125 0.01375 0
0.0885937 0.0135938 0
0.0759375 0.0134375 0
0.1 0 0
0.0875 0 0
0.075 0 0
0.076875 0.026875 0
0.0640625 0.0265625 0
0.05125 0.02625 0
0.0759375 0.0134375 0
0.0632812 0.0132813 0
0.050625 0.013125 0
0.075 0 0
0.0625 0 0
0.05 0 0
0.0525 0.0525 0
0.039375 0.051875 0
0.02625 0.05125 0
0.051875 0.039375 0
0.0389063 0.0389063 0
0.0259375 0.0384375 0
0.05125 0.02625 0
0.0384375 0.0259375 0
0.025625 0.025625 0
0.02625 0.05125 0
0.013125 0.050625 0
0 0.05 0
0.0259375 0.0384375 0
0.0129688 0.0379688 0
0 0.0375 0
0.025625 0.025625 0
0.0128125 0.0253125 0
0 0.025 0
0.05125 0.02625 0
0.0384375 0.0259375 0
0.025625 0.025625 0
0.050625 0.013125 0
0.0379688 0.0129688 0
0.0253125 0.0128125 0
0.05 0 0
0.0375 0 0
0.025 0 0
0.025625 0.025625 0
0.0128125 0.0253125 0
0 0.025 0
0.0253125 0.0128125 0
0.0126563 0.0126563 0
0 0.0125 0
0.025 0 0
0.0125 0 0
0 0 0
0.2 0.1 0
0.18875 0.10125 0
0.1775 0.1025 0
0.2 0.0875 0
0.188594 0.0885938 0
0.177187 0.0896875 0
0.2 0.075 0
0.188438 0.0759375 0
0.176875 0.076875 0
0.1775 0.1025 0
0.16625 0.10375 0
0.155 0.105 0
0.177187 0.0896875 0
0.165781 0.0907813 0
0.154375 0.091875 0
0.176875 0.076875 0
0.165313 0.0778125 0
0.15375 0.07875 0
0.2 0.075 0
0.188438 0.0759375 0
0.176875 0.076875 0
0.2 0.0625 0
0.188281 0.0632813 0
0.176563 0.0640625 0
0.2 0.05 0
0.188125 0.050625 0
0.17625 0.05125 0
0.176875 0.076875 0
0.165313 0.0778125 0
0.15375 0.07875 0
0.176563 0.0640625 0
0.164844 0.0648438 0
0.153125 0.065625 0
0.17625 0.05125 0
0.164375 0.051875 0
0.1525 0.0525 0
0.155 0.105 0
0.14375 0.10625 0
0.1325 0.1075 0
0.154375 0.091875 0
0.142969 0.0929688 0
0.131562 0.0940625 0
0.15375 0.07875 0
0.142187 0.0796875 0
0.130625 0.080625 0
0.1325 0.1075 0
0.12125 0.10875 0
0.11 0.11 0
0.131562 0.0940625 0
0.120156 0.0951563 0
0.10875 0.09625 0
0.130625 0.080625 0
0.119063 0.0815625 0
0.1075 0.0825 0
0.15375 0.07875 0
0.142187 0.0796875 0
0.130625 0.080625 0
0.153125 0.065625 0
0.141406 0.0664062 0
0.129688 0.0671875 0
0.1525 0.0525 0
0.140625 0.053125 0
0.12875 0.05375 0
0.130625 0.080625 0
0.119063 0.0815625 0
0.1075 0.0825 0
0.129688 0.0671875 0
0.117969 0.0679688 0
0.10625 0.06875 0
0.12875 0.05375 0
0.116875 0.054375 0
0.105 0.055 0
0.2 0.05 0
0.188125 0.050625 0
0.17625 0.05125 0
0.2 0.0375 0
0.187969 0.0379688 0
0.175938 0.0384375 0
0.2 0.025 0
0.187813 0.0253125 0
0.175625 0.025625 0
0.17625 0.05125 0
0.164375 0.051875 0
0.1525 0.0525 0
0.175938 0.0384375 0
0.163906 0.0389063 0
0.151875 0.039375 0
0.175625 0.025625 0
0.163438 0.0259375 0
0.15125 0.02625 0
0.2 0.025 0
0.187813 0.0253125 0
0.175625 0.025625 0
0.2 0.0125 0
0.187656 0.0126563 0
0.175313 0.0128125 0
0.2 0 0
0.1875 0 0
0.175 0 0
0.175625 0.025625 0
0.163438 0.0259375 0
0.15125 0.02625 0
0.175313 0.0128125 0
0.162969 0.0129688 0
0.150625 0.013125 0
0.175 0 0
0.1625 0 0
0.15 0 0
0.1525 0.0525 0
0.140625 0.053125 0
0.12875 0.05375 0
0.151875 0.039375 0
0.139844 0.0398438 0
0.127813 0.0403125 0
0.15125 0.02625 0
0.139063 0.0265625 0
0.126875 0.026875 0
0.12875 0.05375 0
0.116875 0.054375 0
0.105 0.055 0
0.127813 0.0403125 0
0.115781 0.0407813 0
0.10375 0.04125 0
0.126875 0.026875 0
0.114688 0.0271875 0
0.1025 0.0275 0
0.15125 0.02625 0
0.139063 0.0265625 0
0.126875 0.026875 0
0.150625 0.013125 0
0.138281 0.0132813 0
0.125938 0.0134375 0
0.15 0 0
0.1375 0 0
0.125 0 0
0.126875 0.026875 0
0.114688 0.0271875 0
0.1025 0.0275 0
0.125938 0.0134375 0
0.113594 0.0135938 0
0.10125 0.01375 0
0.125 0 0
0.1125 0 0
0.1 0 0
0.1 0.2 0
0.0875 0.2 0
0.075 0.2 0
0.10125 0.18875 0
0.0885937 0.188594 0
0.0759375 0.188438 0
0.1025 0.1775 0
0.0896875 0.177187 0
0.076875 0.176875 0
0.075 0.2 0
0.0625 0.2 0
0.05 0.2 0
0.0759375 0.188438 0
0.0632813 0.188281 0
0.050625 0.188125 0
0.076875 0.176875 0
0.0640625 0.176563 0
0.05125 0.17625 0
0.1025 0.1775 0
0.0896875 0.177187 0
0.076875 0.176875 0
0.10375 0.16625 0
0.0907813 0.165781 0
0.0778125 0.165313 0
0.105 0.155 0
0.091875 0.154375 0
0.07875 0.15375 0
0.076875 0.176875 0
0.0640625 0.176563 0
0.05125 0.17625 0
0.0778125 0.165313 0
0.0648438 0.164844 0
0.051875 0.164375 0
0.07875 0.15375 0
0.065625 0.153125 0
0.0525 0.1525 0
0.05 0.2 0
0.0375 0.2 0
0.025 0.2 0
0.050625 0.188125 0
0.0379688 0.187969 0
0.0253125 0.187813 0
0.05125 0.17625 0
0.0384375 0.175938 0
0.025625 0.175625 0
0.025 0.2 0
0.0125 0.2 0
0 0.2 0
0.0253125 0.187813 0
0.0126563 0.187656 0
0 0.1875 0
0.025625 0.175625 0
0.0128125 0.175313 0
0 0.175 0
0.05125 0.17625 0
0.0384375 0.175938 0
0.025625 0.175625 0
0.051875 0.164375 0
0.0389063 0.163906 0
0.0259375 0.163438 0
0.0525 0.1525 0
0.039375 0.151875 0
0.02625 0.15125 0
0.025625 0.175625 0
0.0128125 0.175313 0
0 0.175 0
0.0259375 0.163438 0
0.0129688 0.162969 0
0 0.1625 0
0.02625 0.15125 0
0.013125 0.150625 0
0 0.15 0
0.105 0.155 0
0.091875 0.154375 0
0.07875 0.15375 0
0.10625 0.14375 0
0.0929688 0.142969 0
0.0796875 0.142187 0
0.1075 0.1325 0
0.0940625 0.131562 0
0.080625 0.130625 0
0.07875 0.15375 0
0.065625 0.153125 0
0.0525 0.1525 0
0.0796875 0.142187 0
0.0664063 0.141406 0
0.053125 0.140625 0
0.080625 0.130625 0
0.0671875 0.129688 0
0.05375 0.12875 0
0.1075 0.1325 0
0.0940625 0.131562 0
0.080625 0.130625 0
0.10875 0.12125 0
0.0951563 0.120156 0
0.0815625 0.119063 0
0.11 0.11 0
0.09625 0.10875 0
0.0825 0.1075 0
0.080625 0.130625 0
0.0671875 0.129688 0
0.05375 0.12875 0
0.0815625 0.119063 0
0.0679688 0.117969 0
0.054375 0.116875 0
0.0825 0.1075 0
0.06875 0.10625 0
0.055 0.105 0
0.0525 0.1525 0
0.039375 0.151875 0
0.02625 0.15125 0
0.053125 0.140625 0
0.0398438 0.139844 0
0.0265625 0.139063 0
0.05375 0.12875 0
0.0403125 0.127813 0
0.026875 0.126875 0
0.02625 0.15125 0
0.013125 0.150625 0
0 0.15 0
0.0265625 0.139063 0
0.0132813 0.138281 0
0 0.1375 0
0.026875 0.126875 0
0.0134375 0.125938 0
0 0.125 0
0.05375 0.12875 0
0.0403125 0.127813 0
0.026875 0.126875 0
0.054375 0.116875 0
0.0407813 0.115781 0
0.0271875 0.114688 0
0.055 0.105 0
0.04125 0.10375 0
0.0275 0.1025 0
0.026875 0.126875 0
0.0134375 0.125938 0
0 0.125 0
0.0271875 0.114688 0
0.0135938 0.113594 0
0 0.1125 0
0.0275 0.1025 0
0.01375 0.10125 0
0 0.1 0
0.29 0.11 0
0.27875 0.10875 0
0.2675 0.1075 0
0.29125 0.09625 0
0.279844 0.0951563 0
0.268437 0.0940625 0
0.2925 0.0825 0
0.280938 0.0815625 0
0.269375 0.080625 0
0.2675 0.1075 0
0.25625 0.10625 0
0.245 0.105 0
0.268437 0.0940625 0
0.257031 0.0929688 0
0.245625 0.091875 0
0.269375 0.080625 0
0.257812 0.0796875 0
0.24625 0.07875 0
0.2925 0.0825 0
0.280938 0.0815625 0
0.269375 0.080625 0
0.29375 0.06875 0
0.282031 0.0679688 0
0.270313 0.0671875 0
0.295 0.055 0
0.283125 0.054375 0
0.27125 0.05375 0
0.269375 0.080625 0
0.257812 0.0796875 0
0.24625 0.07875 0
0.270313 0.0671875 0
0.258594 0.0664062 0
0.246875 0.065625 0
0.27125 0.05375 0
0.259375 0.053125 0
0.2475 0.0525 0
0.245 0.105 0
0.23375 0.10375 0
0.2225 0.1025 0
0.245625 0.091875 0
0.234219 0.0907813 0
0.222813 0.0896875 0
0.24625 0.07875 0
0.234687 0.0778125 0
0.223125 0.076875 0
0.2225 0.1025 0
0.21125 0.10125 0
0.2 0.1 0
0.222813 0.0896875 0
0.211406 0.0885937 0
0.2 0.0875 0
0.223125 0.076875 0
0.211563 0.0759375 0
0.2 0.075 0
0.24625 0.07875 0
0.234687 0.0778125 0
0.223125 0.076875 0
0.246875 0.065625 0
0.235156 0.0648438 0
0.223438 0.0640625 0
0.2475 0.0525 0
0.235625 0.051875 0
0.22375 0.05125 0
0.223125 0.076875 0
0.211563 0.0759375 0
0.2 0.075 0
0.223438 0.0640625 0
0.211719 0.0632813 0
0.2 0.0625 0
0.22375 0.05125 0
0.211875 0.050625 0
0.2 0.05 0
0.295 0.055 0
0.283125 0.054375 0
0.27125 0.05375 0
0.29625 0.04125 0
0.284219 0.0407813 0
0.272188 0.0403125 0
0.2975 0.0275 0
0.285312 0.0271875 0
0.273125 0.026875 0
0.27125 0.05375 0
0.259375 0.053125 0
0.2475 0.0525 0
0.272188 0.0403125 0
0.260156 0.0398438 0
0.248125 0.039375 0
0.273125 0.026875 0
0.260937 0.0265625 0
0.24875 0.02625 0
0.2975 0.0275 0
0.285312 0.0271875 0
0.273125 0.026875 0
0.29875 0.01375 0
0.286406 0.0135938 0
0.274062 0.0134375 0
0.3 0 0
0.2875 0 0
0.275 0 0
0.273125 0.026875 0
0.260937 0.0265625 0
0.24875 0.02625 0
0.274062 0.0134375 0
0.261719 0.0132813 0
0.249375 0.013125 0
0.275 0 0
0.2625 0 0
0.25 0 0
0.2475 0.0525 0
0.235625 0.051875 0
0.22375 0.05125 0
0.248125 0.039375 0
[...]
POINT_DATA 5760
SCALARS x_velo double 1
LOOKUP_TABLE default
0.259834 0.249944 0.243094 0.248517 0.237158 0.228401 0.231176 0.219238 0.209464 0.243094 0.237181 0.232942 0.228401 0.220978 0.215331 0.209464 0.201183 0.194625 0.231176 0.219238 0.209464 0.208566 0.196543 0.186415 0.181083 0.16949 0.159499 0.209464 0.201183 0.194625 0.186415 0.177771 0.170782 0.159499 0.150936 0.143917 0.232942 0.229152 0.226088 0.215331 0.210513 0.206729 0.194625 0.189154 0.184901 0.226088 0.223425 0.221297 0.206729 0.203676 0.201443 0.184901 0.181607 0.179358 0.194625 0.189154 0.184901 0.170782 0.165012 0.16055 0.143917 0.138168 0.133742 0.184901 0.181607 0.179358 0.16055 0.157206 0.155042 0.133742 0.130496 0.128495 0.181083 0.16949 0.159499 0.148632 0.137843 0.128484 0.109398 0.100336 0.0924543 0.159499 0.150936 0.143917 0.128484 0.120446 0.113842 0.0924543 0.0857026 0.0801649 0.109398 0.100336 0.0924543 0.0607948 0.055 0.0500184 0 0 0 0.0924543 0.0857026 0.0801649 0.0500184 0.0457501 0.0422899 0 0 0 0.143917 0.138168 0.133742 0.113842 0.108475 0.104392 0.0801649 0.0757113 0.0723791 0.133742 0.130496 0.128495 0.104392 0.101457 0.0997174 0.0723791 0.0700408 0.0687091 0.0801649 0.0757113 0.0723791 0.0422899 0.0395142 0.0375173 0 0 0 0.0723791 0.0700408 0.0687091 0.0375173 0.0361488 0.03547 0 0 0 0.386512 0.376179 0.360205 0.364477 0.352929 0.33791 0.335888 0.324619 0.310993 0.360205 0.341117 0.319635 0.33791 0.321237 0.303183 0.310993 0.296358 0.280923 0.335888 0.324619 0.310993 0.304616 0.294012 0.281692 0.269574 0.259917 0.248773 0.310993 0.296358 0.280923 0.281692 0.268617 0.254942 0.248773 0.236955 0.224605 0.319635 0.300366 0.283111 0.303183 0.286606 0.271338 0.280923 0.26641 0.252892 0.283111 0.269893 0.259834 0.271338 0.258697 0.248517 0.252892 0.241163 0.231176 0.280923 0.26641 0.252892 0.254942 0.241855 0.229471 0.224605 0.212592 0.201074 0.252892 0.241163 0.231176 0.229471 0.218353 0.208566 0.201074 0.190516 0.181083 0.269574 0.259917 0.248773 0.228033 0.2198 0.210137 0.174104 0.167977 0.160487 0.248773 0.236955 0.224605 0.210137 0.199749 0.188777 0.160487 0.152202 0.143291 0.174104 0.167977 0.160487 0.10051 0.0973107 0.0930175 0 0 0 0.160487 0.152202 0.143291 0.0930175 0.0880977 0.0825943 0 0 0 0.224605 0.212592 0.201074 0.188777 0.177925 0.167381 0.143291 0.134304 0.125459 0.201074 0.190516 0.181083 0.167381 0.157555 0.148632 0.125459 0.117093 0.109398 0.143291 0.134304 0.125459 0.0825943 0.0769322 0.0712623 0 0 0 0.125459 0.117093 0.109398 0.0712623 0.0658242 0.0607948 0 0 0 0.217883 0.24233 0.26042 0.217327 0.241539 0.25927 0.222203 0.243248 0.259093 0.26042 0.274191 0.283953 0.25927 0.272749 0.282362 0.259093 0.271084 0.279808 0.222203 0.243248 0.259093 0.231458 0.24731 0.259777 0.242134 0.251897 0.260189 0.259093 0.271084 0.279808 0.259777 0.269181 0.276312 0.260189 0.266391 0.271459 0.283953 0.291255 0.296034 0.282362 0.289497 0.294166 0.279808 0.286233 0.290427 0.296034 0.298921 0.299822 0.294166 0.296949 0.297814 0.290427 0.292889 0.293575 0.279808 0.286233 0.290427 0.276312 0.281468 0.284826 0.271459 0.274989 0.277258 0.290427 0.292889 0.293575 0.284826 0.286699 0.287106 0.277258 0.278379 0.278406 0.242134 0.251897 0.260189 0.252047 0.255574 0.259481 0.258757 0.257086 0.256773 0.260189 0.266391 0.271459 0.259481 0.262284 0.264992 0.256773 0.256303 0.256574 0.258757 0.257086 0.256773 0.261361 0.255274 0.251379 0.259834 0.249944 0.243094 0.256773 0.256303 0.256574 0.251379 0.248011 0.245936 0.243094 0.237181 0.232942 0.271459 0.274989 0.277258 0.264992 0.26668 0.267675 0.256574 0.256349 0.255984 0.277258 0.278379 0.278406 0.267675 0.267914 0.267475 0.255984 0.255264 0.254313 0.256574 0.256349 0.255984 0.245936 0.243874 0.242141 0.232942 0.229152 0.226088 0.255984 0.255264 0.254313 0.242141 0.240454 0.23892 0.226088 0.223425 0.221297 0.328956 0.33838 0.349556 0.361994 0.368561 0.375037 0.365811 0.368937 0.371195 0.349556 0.361498 0.37405 0.375037 0.380554 0.384796 0.371195 0.371766 0.370475 0.365811 0.368937 0.371195 0.347416 0.348419 0.348221 0.313232 0.313639 0.31275 0.371195 0.371766 0.370475 0.348221 0.346301 0.342583 0.31275 0.310203 0.305934 0.37405 0.384687 0.392237 0.384796 0.385924 0.383615 0.370475 0.36635 0.359284 0.392237 0.393057 0.386512 0.383615 0.376396 0.364477 0.359284 0.349099 0.335888 0.370475 0.36635 0.359284 0.342583 0.336556 0.328189 0.305934 0.29971 0.291496 0.359284 0.349099 0.335888 0.328189 0.317542 0.304616 0.291496 0.28144 0.269574 0.313232 0.313639 0.31275 0.263312 0.26446 0.264315 0.19504 0.197241 0.198375 0.31275 0.310203 0.305934 0.264315 0.262604 0.259245 0.198375 0.198177 0.196529 0.19504 0.197241 0.198375 0.106636 0.108929 0.110624 0 0 0 0.198375 0.198177 0.196529 0.110624 0.111525 0.111493 0 0 0 0.305934 0.29971 0.291496 0.259245 0.254098 0.247102 0.196529 0.19331 0.188425 0.291496 0.28144 0.269574 0.247102 0.238429 0.228033 0.188425 0.182026 0.174104 0.196529 0.19331 0.188425 0.111493 0.110452 0.108224 0 0 0 0.188425 0.182026 0.174104 0.108224 0.104965 0.10051 0 0 0 0.31768 0.320452 0.322826 0.320745 0.326847 0.332692 0.308616 0.316995 0.325157 0.322826 0.324641 0.325958 0.332692 0.338156 0.343293 0.325157 0.332931 0.34033 0.308616 0.316995 0.325157 0.282157 0.291935 0.301571 0.242584 0.252842 0.263125 0.325157 0.332931 0.34033 0.301571 0.310831 0.319648 0.263125 0.273184 0.282895 0.325958 0.326824 0.327386 0.343293 0.348115 0.352741 0.34033 0.347239 0.353732 0.327386 0.327919 0.328956 0.352741 0.357333 0.361994 0.353732 0.359861 0.365811 0.34033 0.347239 0.353732 0.319648 0.32778 0.335208 0.282895 0.291932 0.300197 0.353732 0.359861 0.365811 0.335208 0.341754 0.347416 0.300197 0.307323 0.313232 0.242584 0.252842 0.263125 0.191724 0.201262 0.211031 0.132172 0.139675 0.147534 0.263125 0.273184 0.282895 0.211031 0.220837 0.23057 0.147534 0.155654 0.163985 0.132172 0.139675 0.147534 0.067273 0.071502 0.0760199 0 0 0 0.147534 0.155654 0.163985 0.0760199 0.080787 0.0858518 0 0 0 0.282895 0.291932 0.300197 0.23057 0.239897 0.248688 0.163985 0.17228 0.180424 0.300197 0.307323 0.313232 0.248688 0.256535 0.263312 0.180424 0.18807 0.19504 0.163985 0.17228 0.180424 0.0858518 0.0910478 0.0963677 0 0 0 0.180424 0.18807 0.19504 0.0963677 0.101583 0.106636 0 0 0 0.0547194 0.0433088 0.032492 0.0655939 0.0540016 0.0429245 0.0925626 0.0809419 0.0696598 0.032492 0.0221184 0.0122753 0.0429245 0.0321955 0.021905 0.0696598 0.0584819 0.047489 0.0925626 0.0809419 0.0696598 0.131763 0.120616 0.109538 0.178093 0.168184 0.158098 0.0696598 0.0584819 0.047489 0.109538 0.0982335 0.0867604 0.158098 0.147462 0.136318 0.0122753 0.00319421 -0.00455323 0.021905 0.0122854 0.00386696 0.047489 0.0368597 0.0270202 -0.00455323 -0.0108246 -0.0148569 0.00386696 -0.00321612 -0.00827112 0.0270202 0.0180025 0.0102744 0.047489 0.0368597 0.0270202 0.0867604 0.0752074 0.0638392 0.136318 0.124649 0.112583 0.0270202 0.0180025 0.0102744 0.0638392 0.0525566 0.0415188 0.112583 0.0999021 0.0865721 0.178093 0.168184 0.158098 0.225168 0.217518 0.209494 0.267485 0.262946 0.257972 0.158098 0.147462 0.136318 0.209494 0.200726 0.191245 0.257972 0.252225 0.245753 0.267485 0.262946 0.257972 0.299328 0.298405 0.297057 0.31768 0.320452 0.322826 0.257972 0.252225 0.245753 0.297057 0.295036 0.292403 0.322826 0.324641 0.325958 0.136318 0.124649 0.112583 0.191245 0.180964 0.169925 0.245753 0.238464 0.230412 0.112583 0.0999021 0.0865721 0.169925 0.15796 0.144954 0.230412 0.221542 0.21214 0.245753 0.238464 0.230412 0.292403 0.289137 0.285342 0.325958 0.326824 0.327386 0.230412 0.221542 0.21214 0.285342 0.281142 0.276599 0.327386 0.327919 0.328956 0.323107 0.324414 0.325492 0.299425 0.297395 0.295098 0.2632 0.257888 0.252297 0.325492 0.326197 0.326597 0.295098 0.292295 0.289054 0.252297 0.246094 0.239334 0.2632 0.257888 0.252297 0.217766 0.209678 0.201368 0.169118 0.159064 0.148979 0.252297 0.246094 0.239334 0.201368 0.192479 0.18304 0.148979 0.1385 0.127666 0.326597 0.326744 0.326794 0.289054 0.285362 0.28133 0.239334 0.231933 0.223944 0.326794 0.32703 0.328019 0.28133 0.277079 0.272661 0.223944 0.215295 0.20626 0.239334 0.231933 0.223944 0.18304 0.172971 0.162313 0.127666 0.116461 0.105016 0.223944 0.215295 0.20626 0.162313 0.150882 0.138549 0.105016 0.0930988 0.080662 0.169118 0.159064 0.148979 0.122939 0.111854 0.100958 0.0855102 0.0740352 0.0629844 0.148979 0.1385 0.127666 0.100958 0.0899704 0.0789397 0.0629844 0.0521343 0.0415578 0.0855102 0.0740352 0.0629844 0.0616892 0.0502036 0.0392775 0.0547194 0.0433088 0.032492 0.0629844 0.0521343 0.0415578 0.0392775 0.028749 0.0187042 0.032492 0.0221184 0.0122753 0.127666 0.116461 0.105016 0.0789397 0.0679554 0.0572827 0.0415578 0.0314313 0.0221817 0.105016 0.0930988 0.080662 0.0572827 0.0468138 0.0367017 0.0221817 0.0138355 0.00685876 0.0415578 0.0314313 0.0221817 0.0187042 0.0093732 0.00128707 0.0122753 0.00319421 -0.00455323 0.0221817 0.0138355 0.00685876 0.00128707 -0.00542314 -0.0100625 -0.00455323 -0.0108246 -0.0148569 0 0 0 0.0753347 0.0794954 0.0838492 0.146358 0.153439 0.160703 0 0 0 0.0838492 0.0883669 0.0930809 0.160703 0.168063 0.175458 0.146358 0.153439 0.160703 0.209599 0.21818 0.226778 0.261678 0.270501 0.279168 0.160703 0.168063 0.175458 0.226778 0.235217 0.2434 0.279168 0.287468 0.295312 0 0 0 0.0930809 0.0978285 0.102582 0.175458 0.182652 0.189533 0 0 0 0.102582 0.107138 0.111432 0.189533 0.195794 0.201278 0.175458 0.182652 0.189533 0.2434 0.251035 0.25802 0.295312 0.302432 0.308768 0.189533 0.195794 0.201278 0.25802 0.264022 0.268954 0.308768 0.314021 0.318142 0.261678 0.270501 0.279168 0.30036 0.308467 0.31636 0.324339 0.331091 0.337681 0.279168 0.287468 0.295312 0.31636 0.323861 0.330941 0.337681 0.344 0.350086 0.324339 0.331091 0.337681 0.332386 0.337023 0.341548 0.323107 0.324414 0.325492 0.337681 0.344 0.350086 0.341548 0.345876 0.350079 0.325492 0.326197 0.326597 0.295312 0.302432 0.308768 0.330941 0.337408 0.343265 0.350086 0.355855 0.361383 0.308768 0.314021 0.318142 0.343265 0.348361 0.352686 0.361383 0.366712 0.371998 0.350086 0.355855 0.361383 0.350079 0.354173 0.358273 0.326597 0.326744 0.326794 0.361383 0.366712 0.371998 0.358273 0.362505 0.36695 0.326794 0.32703 0.328019 0 0 0 0.111432 0.113068 0.11409 0.201278 0.20235 0.202399 0 0 0 0.11409 0.114361 0.113757 0.202399 0.201237 0.198771 0.201278 0.20235 0.202399 0.268954 0.268836 0.267528 0.318142 0.317379 0.315435 0.202399 0.201237 0.198771 0.267528 0.264839 0.260705 0.315435 0.312026 0.307105 0 0 0 0.113757 0.112248 0.109692 0.198771 0.194945 0.189692 0 0 0 0.109692 0.106241 0.101773 0.189692 0.183171 0.175394 0.198771 0.194945 0.189692 0.260705 0.255053 0.247839 0.307105 0.300512 0.292226 0.189692 0.183171 0.175394 0.247839 0.239234 0.229206 0.292226 0.282402 0.271075 0.318142 0.317379 0.315435 0.352686 0.352747 0.351655 0.371998 0.374548 0.376178 0.315435 0.312026 0.307105 0.351655 0.34897 0.344637 0.376178 0.376109 0.3742 0.371998 0.374548 0.376178 0.36695 0.373614 0.380122 0.328019 0.338192 0.350226 0.376178 0.376109 0.3742 0.380122 0.385597 0.389705 0.350226 0.363112 0.376641 0.307105 0.300512 0.292226 0.344637 0.338252 0.329803 0.3742 0.369623 0.362322 0.292226 0.282402 0.271075 0.329803 0.319402 0.30705 0.362322 0.352264 0.339543 0.3742 0.369623 0.362322 0.389705 0.390681 0.388259 0.376641 0.388226 0.396643 0.362322 0.352264 0.339543 0.388259 0.381115 0.369548 0.396643 0.398188 0.392303 0.269723 0.260708 0.254633 0.269861 0.264605 0.261422 0.265913 0.264997 0.265328 0.254633 0.249396 0.24576 0.261422 0.258672 0.257138 0.265328 0.265409 0.26616 0.265913 0.264997 0.265328 0.257891 0.262092 0.266566 0.246719 0.257058 0.265826 0.265328 0.265409 0.26616 0.266566 0.269848 0.272965 0.265826 0.272426 0.277828 0.24576 0.242463 0.239817 0.257138 0.255517 0.254154 0.26616 0.266321 0.266279 0.239817 0.237473 0.235574 0.254154 0.252746 0.251413 0.266279 0.265802 0.265021 0.26616 0.266321 0.266279 0.272965 0.274984 0.276251 0.277828 0.281628 0.284116 0.266279 0.265802 0.265021 0.276251 0.276694 0.276398 0.284116 0.285403 0.285544 0.246719 0.257058 0.265826 0.234842 0.251153 0.263989 0.22444 0.245795 0.261893 0.265826 0.272426 0.277828 0.263989 0.273701 0.281084 0.261893 0.274095 0.282988 0.22444 0.245795 0.261893 0.218442 0.242814 0.260671 0.217883 0.24233 0.26042 0.261893 0.274095 0.282988 0.260671 0.274256 0.283952 0.26042 0.274191 0.283953 0.277828 0.281628 0.284116 0.281084 0.286446 0.289968 0.282988 0.289552 0.293855 0.284116 0.285403 0.285544 0.289968 0.291967 0.29246 0.293855 0.296401 0.297145 0.282988 0.289552 0.293855 0.283952 0.291157 0.29588 0.283953 0.291255 0.296034 0.293855 0.296401 0.297145 0.29588 0.298705 0.299598 0.296034 0.298921 0.299822 0 0 0 0.101773 0.0985068 0.0943227 0.175394 0.169335 0.162163 0 0 0 0.0943227 0.0896015 0.0843908 0.162163 0.15434 0.146015 0.175394 0.169335 0.162163 0.229206 0.221275 0.212189 0.271075 0.261929 0.251563 0.162163 0.15434 0.146015 0.212189 0.202518 0.192385 0.251563 0.240652 0.229313 0 0 0 0.0843908 0.0790414 0.0736828 0.146015 0.137638 0.129394 0 0 0 0.0736828 0.0685266 0.0637235 0.129394 0.121575 0.114346 0.146015 0.137638 0.129394 0.192385 0.182374 0.172645 0.229313 0.218287 0.207702 0.129394 0.121575 0.114346 0.172645 0.163554 0.155259 0.207702 0.197973 0.189242 0.271075 0.261929 0.251563 0.30705 0.297045 0.285602 0.339543 0.328845 0.316071 0.251563 0.240652 0.229313 0.285602 0.273525 0.260949 0.316071 0.302409 0.288053 0.339543 0.328845 0.316071 0.369548 0.358412 0.344079 0.392303 0.382309 0.366762 0.316071 0.302409 0.288053 0.344079 0.328221 0.311069 0.366762 0.348172 0.327261 0.229313 0.218287 0.207702 0.260949 0.248906 0.237488 0.288053 0.274548 0.261946 0.207702 0.197973 0.189242 0.237488 0.227201 0.218092 0.261946 0.250993 0.241625 0.288053 0.274548 0.261946 0.311069 0.295351 0.280842 0.327261 0.308625 0.291979 0.261946 0.250993 0.241625 0.280842 0.268841 0.259158 0.291979 0.279321 0.269723 0 0 0 0.0637235 0.0581516 0.053309 0.114346 0.105756 0.0982174 0 0 0 0.053309 0.0491317 0.0457102 0.0982174 0.0917175 0.0863416 0.114346 0.105756 0.0982174 0.155259 0.145112 0.136243 0.189242 0.178372 0.168944 0.0982174 0.0917175 0.0863416 0.136243 0.128587 0.122252 0.168944 0.160835 0.15415 0 0 0 0.0457102 0.0429528 0.0409526 0.0863416 0.0819958 0.0787185 0 0 0 0.0409526 0.0395794 0.0388943 0.0787185 0.0764101 0.0750892 0.0863416 0.0819958 0.0787185 0.122252 0.117081 0.113125 0.15415 0.14866 0.14442 0.0787185 0.0764101 0.0750892 0.113125 0.110278 0.108585 0.14442 0.141306 0.139381 0.189242 0.178372 0.168944 0.218092 0.206793 0.197232 0.241625 0.230406 0.221194 0.168944 0.160835 0.15415 0.197232 0.189058 0.182433 0.221194 0.213398 0.207233 0.241625 0.230406 0.221194 0.259158 0.248526 0.240385 0.269723 0.260708 0.254633 0.221194 0.213398 0.207233 0.240385 0.233502 0.228325 0.254633 0.249396 0.24576 0.15415 0.14866 0.14442 0.182433 0.176955 0.172717 0.207233 0.202084 0.198092 0.14442 0.141306 0.139381 0.172717 0.169538 0.167478 0.198092 0.194992 0.192876 0.207233 0.202084 0.198092 0.228325 0.223895 0.22044 0.24576 0.242463 0.239817 0.198092 0.194992 0.192876 0.22044 0.217635 0.215575 0.239817 0.237473 0.235574 0.26339 0.268629 0.274382 0.250219 0.256229 0.263055 0.22904 0.235109 0.242219 0.274382 0.280779 0.287602 0.263055 0.270854 0.279493 0.242219 0.250555 0.260081 0.22904 0.235109 0.242219 0.200873 0.20637 0.213022 0.167033 0.171478 0.177064 0.242219 0.250555 0.260081 0.213022 0.221034 0.230471 0.177064 0.183993 0.192417 0.287602 0.29481 0.302114 0.279493 0.288958 0.299004 0.260081 0.270839 0.282646 0.302114 0.309873 0.31768 0.299004 0.309726 0.320745 0.282646 0.295362 0.308616 0.260081 0.270839 0.282646 0.230471 0.241462 0.25392 0.192417 0.202553 0.214456 0.282646 0.295362 0.308616 0.25392 0.26758 0.282157 0.214456 0.22785 0.242584 0.167033 0.171478 0.177064 0.128948 0.132088 0.136226 0.0878381 0.0896613 0.0922286 0.177064 0.183993 0.192417 0.136226 0.14153 0.148198 0.0922286 0.0956497 0.100109 0.0878381 0.0896613 0.0922286 0.0446583 0.045375 0.0465081 0 0 0 0.0922286 0.0956497 0.100109 0.0465081 0.0480848 0.0502362 0 0 0 0.192417 0.202553 0.214456 0.148198 0.1565 0.166626 0.100109 0.105856 0.113178 0.214456 0.22785 0.242584 0.166626 0.178341 0.191724 0.113178 0.121866 0.132172 0.100109 0.105856 0.113178 0.0502362 0.0530805 0.0569325 0 0 0 0.113178 0.121866 0.132172 0.0569325 0.0615593 0.067273 0 0 0 0.2334 0.234979 0.236893 0.218469 0.220148 0.222145 0.199353 0.200929 0.202763 0.236893 0.239373 0.242418 0.222145 0.224698 0.227808 0.202763 0.205082 0.207882 0.199353 0.200929 0.202763 0.176008 0.177348 0.178862 0.148489 0.149531 0.150656 0.202763 0.205082 0.207882 0.178862 0.180751 0.182999 0.150656 0.152035 0.15363 0.242418 0.246205 0.250784 0.227808 0.231713 0.236483 0.207882 0.211429 0.215805 0.250784 0.256544 0.26339 0.236483 0.242656 0.250219 0.215805 0.221655 0.22904 0.207882 0.211429 0.215805 0.182999 0.185869 0.189436 0.15363 0.155679 0.158225 0.215805 0.221655 0.22904 0.189436 0.194399 0.200873 0.158225 0.161964 0.167033 0.148489 0.149531 0.150656 0.116914 0.117652 0.118394 0.081467 0.0819272 0.0823411 0.150656 0.152035 0.15363 0.118394 0.119283 0.120256 0.0823411 0.0828239 0.0832922 0.081467 0.0819272 0.0823411 0.042392 0.0426129 0.0427729 0 0 0 0.0823411 0.0828239 0.0832922 0.0427729 0.0429651 0.0430965 0 0 0 0.15363 0.155679 0.158225 0.120256 0.121511 0.123036 0.0832922 0.0839069 0.0845868 0.158225 0.161964 0.167033 0.123036 0.125473 0.128948 0.0845868 0.0858667 0.0878381 0.0832922 0.0839069 0.0845868 0.0430965 0.0432972 0.0434388 0 0 0 0.0845868 0.0858667 0.0878381 0.0434388 0.0438759 0.0446583 0 0 0 0.257458 0.253348 0.248559 0.257021 0.253172 0.248708 0.257283 0.254072 0.250377 0.248559 0.242847 0.236128 0.248708 0.243414 0.237208 0.250377 0.246038 0.240982 0.257283 0.254072 0.250377 0.257692 0.255389 0.252775 0.257463 0.256193 0.254806 0.250377 0.246038 0.240982 0.252775 0.249768 0.246305 0.254806 0.253299 0.251626 0.236128 0.227914 0.218084 0.237208 0.229633 0.22057 0.240982 0.234811 0.22742 0.218084 0.206053 0.191439 0.22057 0.209456 0.195911 0.22742 0.218309 0.207102 0.240982 0.234811 0.22742 0.246305 0.242071 0.236983 0.251626 0.24957 0.247073 0.22742 0.218309 0.207102 0.236983 0.230633 0.222668 0.247073 0.243853 0.239584 0.257463 0.256193 0.254806 0.255707 0.255447 0.255248 0.251572 0.252171 0.252977 0.254806 0.253299 0.251626 0.255248 0.25519 0.25524 0.252977 0.254139 0.255635 0.251572 0.252171 0.252977 0.244316 0.24554 0.247062 0.2334 0.234979 0.236893 0.252977 0.254139 0.255635 0.247062 0.249085 0.251599 0.236893 0.239373 0.242418 0.251626 0.24957 0.247073 0.25524 0.255288 0.255298 0.255635 0.257463 0.259615 0.247073 0.243853 0.239584 0.255298 0.255143 0.254532 0.259615 0.262133 0.264779 0.255635 0.257463 0.259615 0.251599 0.254697 0.258404 0.242418 0.246205 0.250784 0.259615 0.262133 0.264779 0.258404 0.262935 0.268118 0.250784 0.256544 0.26339 0.191439 0.179931 0.166764 0.195911 0.185187 0.17286 0.207102 0.198119 0.187682 0.166764 0.152131 0.135564 0.17286 0.159102 0.143436 0.187682 0.175935 0.162392 0.207102 0.198119 0.187682 0.222668 0.216115 0.208342 0.239584 0.235838 0.23117 0.187682 0.175935 0.162392 0.208342 0.19946 0.188989 0.23117 0.225672 0.218886 0.135564 0.117411 0.097108 0.143436 0.12616 0.106692 0.162392 0.147262 0.129938 0.097108 0.0762361 0.0547194 0.106692 0.0865563 0.0655939 0.129938 0.111819 0.0925626 0.162392 0.147262 0.129938 0.188989 0.177033 0.162984 0.218886 0.210828 0.200922 0.129938 0.111819 0.0925626 0.162984 0.148075 0.131763 0.200922 0.190228 0.178093 0.239584 0.235838 0.23117 0.254532 0.253611 0.252113 0.264779 0.266442 0.267897 0.23117 0.225672 0.218886 0.252113 0.250118 0.247216 0.267897 0.269234 0.270097 0.264779 0.266442 0.267897 0.268118 0.271878 0.275802 0.26339 0.268629 0.274382 0.267897 0.269234 0.270097 0.275802 0.279995 0.284167 0.274382 0.280779 0.287602 0.218886 0.210828 0.200922 0.247216 0.243368 0.23807 0.270097 0.270434 0.269822 0.200922 0.190228 0.178093 0.23807 0.232237 0.225168 0.269822 0.269031 0.267485 0.270097 0.270434 0.269822 0.284167 0.288265 0.291948 0.287602 0.29481 0.302114 0.269822 0.269031 0.26