# vtk DataFile Version 3.0
#This file was generated by the deal.II library on 2024/9/17 at 11:46:15
ASCII
DATASET UNSTRUCTURED_GRID

POINTS 5760 double
0.11 0.11 0
0.09625 0.10875 0
0.0825 0.1075 0
0.10875 0.09625 0
0.0951562 0.0951563 0
0.0815625 0.0940625 0
0.1075 0.0825 0
0.0940625 0.0815625 0
0.080625 0.080625 0
0.0825 0.1075 0
0.06875 0.10625 0
0.055 0.105 0
0.0815625 0.0940625 0
0.0679688 0.0929688 0
0.054375 0.091875 0
0.080625 0.080625 0
0.0671875 0.0796875 0
0.05375 0.07875 0
0.1075 0.0825 0
0.0940625 0.0815625 0
0.080625 0.080625 0
0.10625 0.06875 0
0.0929688 0.0679688 0
0.0796875 0.0671875 0
0.105 0.055 0
0.091875 0.054375 0
0.07875 0.05375 0
0.080625 0.080625 0
0.0671875 0.0796875 0
0.05375 0.07875 0
0.0796875 0.0671875 0
0.0664063 0.0664062 0
0.053125 0.065625 0
0.07875 0.05375 0
0.065625 0.053125 0
0.0525 0.0525 0
0.055 0.105 0
0.04125 0.10375 0
0.0275 0.1025 0
0.054375 0.091875 0
0.0407813 0.0907813 0
0.0271875 0.0896875 0
0.05375 0.07875 0
0.0403125 0.0778125 0
0.026875 0.076875 0
0.0275 0.1025 0
0.01375 0.10125 0
0 0.1 0
0.0271875 0.0896875 0
0.0135938 0.0885938 0
0 0.0875 0
0.026875 0.076875 0
0.0134375 0.0759375 0
0 0.075 0
0.05375 0.07875 0
0.0403125 0.0778125 0
0.026875 0.076875 0
0.053125 0.065625 0
0.0398438 0.0648438 0
0.0265625 0.0640625 0
0.0525 0.0525 0
0.039375 0.051875 0
0.02625 0.05125 0
0.026875 0.076875 0
0.0134375 0.0759375 0
0 0.075 0
0.0265625 0.0640625 0
0.0132813 0.0632813 0
0 0.0625 0
0.02625 0.05125 0
0.013125 0.050625 0
0 0.05 0
0.105 0.055 0
0.091875 0.054375 0
0.07875 0.05375 0
0.10375 0.04125 0
0.0907813 0.0407813 0
0.0778125 0.0403125 0
0.1025 0.0275 0
0.0896875 0.0271875 0
0.076875 0.026875 0
0.07875 0.05375 0
0.065625 0.053125 0
0.0525 0.0525 0
0.0778125 0.0403125 0
0.0648438 0.0398438 0
0.051875 0.039375 0
0.076875 0.026875 0
0.0640625 0.0265625 0
0.05125 0.02625 0
0.1025 0.0275 0
0.0896875 0.0271875 0
0.076875 0.026875 0
0.10125 0.01375 0
0.0885937 0.0135938 0
0.0759375 0.0134375 0
0.1 0 0
0.0875 0 0
0.075 0 0
0.076875 0.026875 0
0.0640625 0.0265625 0
0.05125 0.02625 0
0.0759375 0.0134375 0
0.0632812 0.0132813 0
0.050625 0.013125 0
0.075 0 0
0.0625 0 0
0.05 0 0
0.0525 0.0525 0
0.039375 0.051875 0
0.02625 0.05125 0
0.051875 0.039375 0
0.0389063 0.0389063 0
0.0259375 0.0384375 0
0.05125 0.02625 0
0.0384375 0.0259375 0
0.025625 0.025625 0
0.02625 0.05125 0
0.013125 0.050625 0
0 0.05 0
0.0259375 0.0384375 0
0.0129688 0.0379688 0
0 0.0375 0
0.025625 0.025625 0
0.0128125 0.0253125 0
0 0.025 0
0.05125 0.02625 0
0.0384375 0.0259375 0
0.025625 0.025625 0
0.050625 0.013125 0
0.0379688 0.0129688 0
0.0253125 0.0128125 0
0.05 0 0
0.0375 0 0
0.025 0 0
0.025625 0.025625 0
0.0128125 0.0253125 0
0 0.025 0
0.0253125 0.0128125 0
0.0126563 0.0126563 0
0 0.0125 0
0.025 0 0
0.0125 0 0
0 0 0
0.2 0.1 0
0.18875 0.10125 0
0.1775 0.1025 0
0.2 0.0875 0
0.188594 0.0885938 0
0.177187 0.0896875 0
0.2 0.075 0
0.188438 0.0759375 0
0.176875 0.076875 0
0.1775 0.1025 0
0.16625 0.10375 0
0.155 0.105 0
0.177187 0.0896875 0
0.165781 0.0907813 0
0.154375 0.091875 0
0.176875 0.076875 0
0.165313 0.0778125 0
0.15375 0.07875 0
0.2 0.075 0
0.188438 0.0759375 0
0.176875 0.076875 0
0.2 0.0625 0
0.188281 0.0632813 0
0.176563 0.0640625 0
0.2 0.05 0
0.188125 0.050625 0
0.17625 0.05125 0
0.176875 0.076875 0
0.165313 0.0778125 0
0.15375 0.07875 0
0.176563 0.0640625 0
0.164844 0.0648438 0
0.153125 0.065625 0
0.17625 0.05125 0
0.164375 0.051875 0
0.1525 0.0525 0
0.155 0.105 0
0.14375 0.10625 0
0.1325 0.1075 0
0.154375 0.091875 0
0.142969 0.0929688 0
0.131562 0.0940625 0
0.15375 0.07875 0
0.142187 0.0796875 0
0.130625 0.080625 0
0.1325 0.1075 0
0.12125 0.10875 0
0.11 0.11 0
0.131562 0.0940625 0
0.120156 0.0951563 0
0.10875 0.09625 0
0.130625 0.080625 0
0.119063 0.0815625 0
0.1075 0.0825 0
0.15375 0.07875 0
0.142187 0.0796875 0
0.130625 0.080625 0
0.153125 0.065625 0
0.141406 0.0664062 0
0.129688 0.0671875 0
0.1525 0.0525 0
0.140625 0.053125 0
0.12875 0.05375 0
0.130625 0.080625 0
0.119063 0.0815625 0
0.1075 0.0825 0
0.129688 0.0671875 0
0.117969 0.0679688 0
0.10625 0.06875 0
0.12875 0.05375 0
0.116875 0.054375 0
0.105 0.055 0
0.2 0.05 0
0.188125 0.050625 0
0.17625 0.05125 0
0.2 0.0375 0
0.187969 0.0379688 0
0.175938 0.0384375 0
0.2 0.025 0
0.187813 0.0253125 0
0.175625 0.025625 0
0.17625 0.05125 0
0.164375 0.051875 0
0.1525 0.0525 0
0.175938 0.0384375 0
0.163906 0.0389063 0
0.151875 0.039375 0
0.175625 0.025625 0
0.163438 0.0259375 0
0.15125 0.02625 0
0.2 0.025 0
0.187813 0.0253125 0
0.175625 0.025625 0
0.2 0.0125 0
0.187656 0.0126563 0
0.175313 0.0128125 0
0.2 0 0
0.1875 0 0
0.175 0 0
0.175625 0.025625 0
0.163438 0.0259375 0
0.15125 0.02625 0
0.175313 0.0128125 0
0.162969 0.0129688 0
0.150625 0.013125 0
0.175 0 0
0.1625 0 0
0.15 0 0
0.1525 0.0525 0
0.140625 0.053125 0
0.12875 0.05375 0
0.151875 0.039375 0
0.139844 0.0398438 0
0.127813 0.0403125 0
0.15125 0.02625 0
0.139063 0.0265625 0
0.126875 0.026875 0
0.12875 0.05375 0
0.116875 0.054375 0
0.105 0.055 0
0.127813 0.0403125 0
0.115781 0.0407813 0
0.10375 0.04125 0
0.126875 0.026875 0
0.114688 0.0271875 0
0.1025 0.0275 0
0.15125 0.02625 0
0.139063 0.0265625 0
0.126875 0.026875 0
0.150625 0.013125 0
0.138281 0.0132813 0
0.125938 0.0134375 0
0.15 0 0
0.1375 0 0
0.125 0 0
0.126875 0.026875 0
0.114688 0.0271875 0
0.1025 0.0275 0
0.125938 0.0134375 0
0.113594 0.0135938 0
0.10125 0.01375 0
0.125 0 0
0.1125 0 0
0.1 0 0
0.1 0.2 0
0.0875 0.2 0
0.075 0.2 0
0.10125 0.18875 0
0.0885937 0.188594 0
0.0759375 0.188438 0
0.1025 0.1775 0
0.0896875 0.177187 0
0.076875 0.176875 0
0.075 0.2 0
0.0625 0.2 0
0.05 0.2 0
0.0759375 0.188438 0
0.0632813 0.188281 0
0.050625 0.188125 0
0.076875 0.176875 0
0.0640625 0.176563 0
0.05125 0.17625 0
0.1025 0.1775 0
0.0896875 0.177187 0
0.076875 0.176875 0
0.10375 0.16625 0
0.0907813 0.165781 0
0.0778125 0.165313 0
0.105 0.155 0
0.091875 0.154375 0
0.07875 0.15375 0
0.076875 0.176875 0
0.0640625 0.176563 0
0.05125 0.17625 0
0.0778125 0.165313 0
0.0648438 0.164844 0
0.051875 0.164375 0
0.07875 0.15375 0
0.065625 0.153125 0
0.0525 0.1525 0
0.05 0.2 0
0.0375 0.2 0
0.025 0.2 0
0.050625 0.188125 0
0.0379688 0.187969 0
0.0253125 0.187813 0
0.05125 0.17625 0
0.0384375 0.175938 0
0.025625 0.175625 0
0.025 0.2 0
0.0125 0.2 0
0 0.2 0
0.0253125 0.187813 0
0.0126563 0.187656 0
0 0.1875 0
0.025625 0.175625 0
0.0128125 0.175313 0
0 0.175 0
0.05125 0.17625 0
0.0384375 0.175938 0
0.025625 0.175625 0
0.051875 0.164375 0
0.0389063 0.163906 0
0.0259375 0.163438 0
0.0525 0.1525 0
0.039375 0.151875 0
0.02625 0.15125 0
0.025625 0.175625 0
0.0128125 0.175313 0
0 0.175 0
0.0259375 0.163438 0
0.0129688 0.162969 0
0 0.1625 0
0.02625 0.15125 0
0.013125 0.150625 0
0 0.15 0
0.105 0.155 0
0.091875 0.154375 0
0.07875 0.15375 0
0.10625 0.14375 0
0.0929688 0.142969 0
0.0796875 0.142187 0
0.1075 0.1325 0
0.0940625 0.131562 0
0.080625 0.130625 0
0.07875 0.15375 0
0.065625 0.153125 0
0.0525 0.1525 0
0.0796875 0.142187 0
0.0664063 0.141406 0
0.053125 0.140625 0
0.080625 0.130625 0
0.0671875 0.129688 0
0.05375 0.12875 0
0.1075 0.1325 0
0.0940625 0.131562 0
0.080625 0.130625 0
0.10875 0.12125 0
0.0951563 0.120156 0
0.0815625 0.119063 0
0.11 0.11 0
0.09625 0.10875 0
0.0825 0.1075 0
0.080625 0.130625 0
0.0671875 0.129688 0
0.05375 0.12875 0
0.0815625 0.119063 0
0.0679688 0.117969 0
0.054375 0.116875 0
0.0825 0.1075 0
0.06875 0.10625 0
0.055 0.105 0
0.0525 0.1525 0
0.039375 0.151875 0
0.02625 0.15125 0
0.053125 0.140625 0
0.0398438 0.139844 0
0.0265625 0.139063 0
0.05375 0.12875 0
0.0403125 0.127813 0
0.026875 0.126875 0
0.02625 0.15125 0
0.013125 0.150625 0
0 0.15 0
0.0265625 0.139063 0
0.0132813 0.138281 0
0 0.1375 0
0.026875 0.126875 0
0.0134375 0.125938 0
0 0.125 0
0.05375 0.12875 0
0.0403125 0.127813 0
0.026875 0.126875 0
0.054375 0.116875 0
0.0407813 0.115781 0
0.0271875 0.114688 0
0.055 0.105 0
0.04125 0.10375 0
0.0275 0.1025 0
0.026875 0.126875 0
0.0134375 0.125938 0
0 0.125 0
0.0271875 0.114688 0
0.0135938 0.113594 0
0 0.1125 0
0.0275 0.1025 0
0.01375 0.10125 0
0 0.1 0
0.29 0.11 0
0.27875 0.10875 0
0.2675 0.1075 0
0.29125 0.09625 0
0.279844 0.0951563 0
0.268437 0.0940625 0
0.2925 0.0825 0
0.280938 0.0815625 0
0.269375 0.080625 0
0.2675 0.1075 0
0.25625 0.10625 0
0.245 0.105 0
0.268437 0.0940625 0
0.257031 0.0929688 0
0.245625 0.091875 0
0.269375 0.080625 0
0.257812 0.0796875 0
0.24625 0.07875 0
0.2925 0.0825 0
0.280938 0.0815625 0
0.269375 0.080625 0
0.29375 0.06875 0
0.282031 0.0679688 0
0.270313 0.0671875 0
0.295 0.055 0
0.283125 0.054375 0
0.27125 0.05375 0
0.269375 0.080625 0
0.257812 0.0796875 0
0.24625 0.07875 0
0.270313 0.0671875 0
0.258594 0.0664062 0
0.246875 0.065625 0
0.27125 0.05375 0
0.259375 0.053125 0
0.2475 0.0525 0
0.245 0.105 0
0.23375 0.10375 0
0.2225 0.1025 0
0.245625 0.091875 0
0.234219 0.0907813 0
0.222813 0.0896875 0
0.24625 0.07875 0
0.234687 0.0778125 0
0.223125 0.076875 0
0.2225 0.1025 0
0.21125 0.10125 0
0.2 0.1 0
0.222813 0.0896875 0
0.211406 0.0885937 0
0.2 0.0875 0
0.223125 0.076875 0
0.211563 0.0759375 0
0.2 0.075 0
0.24625 0.07875 0
0.234687 0.0778125 0
0.223125 0.076875 0
0.246875 0.065625 0
0.235156 0.0648438 0
0.223438 0.0640625 0
0.2475 0.0525 0
0.235625 0.051875 0
0.22375 0.05125 0
0.223125 0.076875 0
0.211563 0.0759375 0
0.2 0.075 0
0.223438 0.0640625 0
0.211719 0.0632813 0
0.2 0.0625 0
0.22375 0.05125 0
0.211875 0.050625 0
0.2 0.05 0
0.295 0.055 0
0.283125 0.054375 0
0.27125 0.05375 0
0.29625 0.04125 0
0.284219 0.0407813 0
0.272188 0.0403125 0
0.2975 0.0275 0
0.285312 0.0271875 0
0.273125 0.026875 0
0.27125 0.05375 0
0.259375 0.053125 0
0.2475 0.0525 0
0.272188 0.0403125 0
0.260156 0.0398438 0
0.248125 0.039375 0
0.273125 0.026875 0
0.260937 0.0265625 0
0.24875 0.02625 0
0.2975 0.0275 0
0.285312 0.0271875 0
0.273125 0.026875 0
0.29875 0.01375 0
0.286406 0.0135938 0
0.274062 0.0134375 0
0.3 0 0
0.2875 0 0
0.275 0 0
0.273125 0.026875 0
0.260937 0.0265625 0
0.24875 0.02625 0
0.274062 0.0134375 0
0.261719 0.0132813 0
0.249375 0.013125 0
0.275 0 0
0.2625 0 0
0.25 0 0
0.2475 0.0525 0
0.235625 0.051875 0
0.22375 0.05125 0
0.248125 0.039375 0
[...]
POINT_DATA 5760
SCALARS x_velo double 1
LOOKUP_TABLE default
0.259827 0.249939 0.24309 0.248518 0.237159 0.228401 0.231185 0.219243 0.209467 0.24309 0.237178 0.23294 0.228401 0.220977 0.21533 0.209467 0.201185 0.194626 0.231185 0.219243 0.209467 0.208578 0.196552 0.186421 0.181093 0.169499 0.159506 0.209467 0.201185 0.194626 0.186421 0.177774 0.170784 0.159506 0.150941 0.14392 0.23294 0.22915 0.226087 0.21533 0.210512 0.206729 0.194626 0.189154 0.184901 0.226087 0.223425 0.221297 0.206729 0.203676 0.201443 0.184901 0.181607 0.179358 0.194626 0.189154 0.184901 0.170784 0.165013 0.160551 0.14392 0.13817 0.133743 0.184901 0.181607 0.179358 0.160551 0.157206 0.155042 0.133743 0.130496 0.128495 0.181093 0.169499 0.159506 0.148638 0.137849 0.12849 0.109401 0.100341 0.0924606 0.159506 0.150941 0.14392 0.12849 0.120451 0.113847 0.0924606 0.0857088 0.0801702 0.109401 0.100341 0.0924606 0.0607996 0.055006 0.0500249 0 0 0 0.0924606 0.0857088 0.0801702 0.0500249 0.0457562 0.0422949 0 0 0 0.14392 0.13817 0.133743 0.113847 0.108478 0.104393 0.0801702 0.0757149 0.0723811 0.133743 0.130496 0.128495 0.104393 0.101457 0.0997174 0.0723811 0.0700413 0.0687091 0.0801702 0.0757149 0.0723811 0.0422949 0.0395175 0.037519 0 0 0 0.0723811 0.0700413 0.0687091 0.037519 0.0361492 0.03547 0 0 0 0.386495 0.376163 0.36019 0.364526 0.352963 0.337934 0.335977 0.324685 0.311043 0.36019 0.341105 0.319624 0.337934 0.321254 0.303195 0.311043 0.296395 0.280951 0.335977 0.324685 0.311043 0.304714 0.294086 0.281747 0.26966 0.259977 0.248816 0.311043 0.296395 0.280951 0.281747 0.268659 0.254975 0.248816 0.236987 0.224628 0.319624 0.300358 0.283103 0.303195 0.286614 0.271344 0.280951 0.266432 0.252909 0.283103 0.269887 0.259827 0.271344 0.258701 0.248518 0.252909 0.241175 0.231185 0.280951 0.266432 0.252909 0.254975 0.241881 0.229491 0.224628 0.212611 0.201089 0.252909 0.241175 0.231185 0.229491 0.218368 0.208578 0.201089 0.190528 0.181093 0.26966 0.259977 0.248816 0.228096 0.219839 0.21016 0.174154 0.168003 0.160497 0.248816 0.236987 0.224628 0.21016 0.199761 0.188783 0.160497 0.152203 0.143288 0.174154 0.168003 0.160497 0.10055 0.0973331 0.0930285 0 0 0 0.160497 0.152203 0.143288 0.0930285 0.0881017 0.0825952 0 0 0 0.224628 0.212611 0.201089 0.188783 0.177929 0.167385 0.143288 0.134301 0.125457 0.201089 0.190528 0.181093 0.167385 0.157559 0.148638 0.125457 0.117093 0.109401 0.143288 0.134301 0.125457 0.0825952 0.0769325 0.0712637 0 0 0 0.125457 0.117093 0.109401 0.0712637 0.0658272 0.0607996 0 0 0 0.217873 0.242321 0.260412 0.217315 0.241529 0.259262 0.22219 0.243237 0.259084 0.260412 0.274185 0.283949 0.259262 0.272743 0.282358 0.259084 0.271077 0.279804 0.22219 0.243237 0.259084 0.231444 0.247298 0.259768 0.242119 0.251884 0.26018 0.259084 0.271077 0.279804 0.259768 0.269174 0.276307 0.26018 0.266384 0.271455 0.283949 0.291253 0.296033 0.282358 0.289495 0.294165 0.279804 0.286231 0.290426 0.296033 0.298921 0.299822 0.294165 0.296949 0.297814 0.290426 0.292889 0.293575 0.279804 0.286231 0.290426 0.276307 0.281465 0.284824 0.271455 0.274986 0.277257 0.290426 0.292889 0.293575 0.284824 0.286699 0.287106 0.277257 0.278379 0.278406 0.242119 0.251884 0.26018 0.252031 0.255562 0.259472 0.258743 0.257075 0.256764 0.26018 0.266384 0.271455 0.259472 0.262277 0.264987 0.256764 0.256297 0.25657 0.258743 0.257075 0.256764 0.26135 0.255266 0.251372 0.259827 0.249939 0.24309 0.256764 0.256297 0.25657 0.251372 0.248006 0.245932 0.24309 0.237178 0.23294 0.271455 0.274986 0.277257 0.264987 0.266678 0.267674 0.25657 0.256347 0.255983 0.277257 0.278379 0.278406 0.267674 0.267914 0.267475 0.255983 0.255263 0.254313 0.25657 0.256347 0.255983 0.245932 0.243871 0.24214 0.23294 0.22915 0.226087 0.255983 0.255263 0.254313 0.24214 0.240454 0.23892 0.226087 0.223425 0.221297 0.328594 0.338069 0.349303 0.362121 0.368673 0.375139 0.366308 0.369355 0.371544 0.349303 0.361301 0.373906 0.375139 0.380649 0.384883 0.371544 0.372054 0.370709 0.366308 0.369355 0.371544 0.348109 0.348991 0.348686 0.314005 0.314268 0.313252 0.371544 0.372054 0.370709 0.348686 0.346673 0.342877 0.313252 0.310597 0.306238 0.373906 0.384588 0.392176 0.384883 0.386003 0.383685 0.370709 0.366538 0.359433 0.392176 0.393023 0.386495 0.383685 0.376455 0.364526 0.359433 0.349214 0.335977 0.370709 0.366538 0.359433 0.342877 0.336784 0.328364 0.306238 0.299939 0.291665 0.359433 0.349214 0.335977 0.328364 0.317674 0.304714 0.291665 0.281561 0.26966 0.314005 0.314268 0.313252 0.264098 0.265095 0.264816 0.195753 0.19782 0.198834 0.313252 0.310597 0.306238 0.264816 0.262991 0.259535 0.198834 0.19853 0.196792 0.195753 0.19782 0.198834 0.107109 0.109321 0.11094 0 0 0 0.198834 0.19853 0.196792 0.11094 0.111774 0.111682 0 0 0 0.306238 0.299939 0.291665 0.259535 0.25431 0.24725 0.196792 0.193499 0.188555 0.291665 0.281561 0.26966 0.24725 0.238529 0.228096 0.188555 0.182109 0.174154 0.196792 0.193499 0.188555 0.111682 0.110591 0.108322 0 0 0 0.188555 0.182109 0.174154 0.108322 0.10503 0.10055 0 0 0 0.318849 0.321323 0.323412 0.322665 0.328461 0.334006 0.311033 0.319114 0.326975 0.323412 0.324976 0.326074 0.334006 0.339195 0.344084 0.326975 0.334466 0.341601 0.311033 0.319114 0.326975 0.284807 0.294313 0.303664 0.245201 0.255237 0.265275 0.326975 0.334466 0.341601 0.303664 0.312645 0.321193 0.265275 0.275081 0.284539 0.326074 0.326761 0.327181 0.344084 0.34869 0.353131 0.341601 0.348274 0.354557 0.327181 0.327617 0.328594 0.353131 0.357575 0.362121 0.354557 0.360508 0.366308 0.341601 0.348274 0.354557 0.321193 0.329076 0.336276 0.284539 0.293332 0.301366 0.354557 0.360508 0.366308 0.336276 0.342622 0.348109 0.301366 0.308283 0.314005 0.245201 0.255237 0.265275 0.194034 0.20342 0.21301 0.133909 0.141332 0.149088 0.265275 0.275081 0.284539 0.21301 0.22262 0.232146 0.149088 0.157087 0.165284 0.133909 0.141332 0.149088 0.0682117 0.0724158 0.0768946 0 0 0 0.149088 0.157087 0.165284 0.0768946 0.0816119 0.0866177 0 0 0 0.284539 0.293332 0.301366 0.232146 0.241265 0.249851 0.165284 0.173435 0.181431 0.301366 0.308283 0.314005 0.249851 0.257503 0.264098 0.181431 0.188928 0.195753 0.165284 0.173435 0.181431 0.0866177 0.0917474 0.0969946 0 0 0 0.181431 0.188928 0.195753 0.0969946 0.102134 0.107109 0 0 0 0.0516071 0.0407251 0.0303951 0.0624872 0.0513937 0.0407795 0.0895034 0.0783042 0.0674194 0.0303951 0.0204791 0.0110564 0.0407795 0.0304908 0.0206087 0.0674194 0.0566305 0.0460079 0.0895034 0.0783042 0.0674194 0.128897 0.118052 0.107266 0.17565 0.165894 0.155967 0.0674194 0.0566305 0.0460079 0.107266 0.0962635 0.0850908 0.155967 0.145515 0.134572 0.0110564 0.00235314 -0.00507962 0.0206087 0.0113598 0.00325396 0.0460079 0.0357248 0.0261874 -0.00507962 -0.0110945 -0.0149386 0.00325396 -0.00356983 -0.00842951 0.0261874 0.0174331 0.00991879 0.0460079 0.0357248 0.0261874 0.0850908 0.0738336 0.062738 0.134572 0.123119 0.11127 0.0261874 0.0174331 0.00991879 0.062738 0.051711 0.0409016 0.11127 0.0988126 0.0857006 0.17565 0.165894 0.155967 0.223432 0.215783 0.207773 0.266678 0.262002 0.256909 0.155967 0.145515 0.134572 0.207773 0.199055 0.189653 0.256909 0.251083 0.244566 0.266678 0.262002 0.256909 0.299541 0.298383 0.296814 0.318849 0.321323 0.323412 0.256909 0.251083 0.244566 0.296814 0.294612 0.291832 0.323412 0.324976 0.326074 0.134572 0.123119 0.11127 0.189653 0.179483 0.168574 0.244566 0.237274 0.22925 0.11127 0.0988126 0.0857006 0.168574 0.156768 0.143936 0.22925 0.220449 0.211146 0.244566 0.237274 0.22925 0.291832 0.288462 0.284599 0.326074 0.326761 0.327181 0.22925 0.220449 0.211146 0.284599 0.280378 0.275849 0.327181 0.327617 0.328594 0.323942 0.324999 0.325839 0.299291 0.297082 0.294618 0.262062 0.256679 0.251027 0.325839 0.326336 0.326554 0.294618 0.291681 0.288335 0.251027 0.244798 0.238039 0.262062 0.256679 0.251027 0.215755 0.207736 0.199502 0.166476 0.156643 0.146773 0.251027 0.244798 0.238039 0.199502 0.190715 0.181399 0.146773 0.136526 0.125928 0.326554 0.326557 0.326493 0.288335 0.284576 0.280507 0.238039 0.230671 0.222739 0.326493 0.326655 0.327603 0.280507 0.276259 0.271874 0.222739 0.214181 0.205258 0.238039 0.230671 0.222739 0.181399 0.171473 0.160968 0.125928 0.114965 0.103751 0.222739 0.214181 0.205258 0.160968 0.14971 0.137556 0.103751 0.0920622 0.0798402 0.166476 0.156643 0.146773 0.119955 0.109228 0.0986713 0.0823959 0.071383 0.0607622 0.146773 0.136526 0.125928 0.0986713 0.0880215 0.0773171 0.0607622 0.0503248 0.0401344 0.0823959 0.071383 0.0607622 0.0585635 0.0475978 0.0371511 0.0516071 0.0407251 0.0303951 0.0607622 0.0503248 0.0401344 0.0371511 0.0270745 0.0174455 0.0303951 0.0204791 0.0110564 0.125928 0.114965 0.103751 0.0773171 0.0666443 0.0562507 0.0401344 0.0303622 0.0214159 0.103751 0.0920622 0.0798402 0.0562507 0.0460359 0.0361435 0.0214159 0.0133286 0.00655587 0.0401344 0.0303622 0.0214159 0.0174455 0.00848854 0.000714656 0.0110564 0.00235314 -0.00507962 0.0214159 0.0133286 0.00655587 0.000714656 -0.00573966 -0.0101899 -0.00507962 -0.0110945 -0.0149386 0 0 0 0.0762496 0.080377 0.0846846 0.148027 0.155012 0.162161 0 0 0 0.0846846 0.0891472 0.0937991 0.162161 0.169394 0.176654 0.148027 0.155012 0.162161 0.211785 0.220199 0.22861 0.264129 0.272725 0.281153 0.162161 0.169394 0.176654 0.22861 0.236854 0.244839 0.281153 0.289215 0.296826 0 0 0 0.0937991 0.0984791 0.10316 0.176654 0.183707 0.190446 0 0 0 0.10316 0.107644 0.111864 0.190446 0.196568 0.201919 0.176654 0.183707 0.190446 0.244839 0.252279 0.259076 0.296826 0.303726 0.309857 0.190446 0.196568 0.201919 0.259076 0.264903 0.269674 0.309857 0.314925 0.318882 0.264129 0.272725 0.281153 0.302825 0.310674 0.318304 0.326558 0.33304 0.339364 0.281153 0.289215 0.296826 0.318304 0.325552 0.332392 0.339364 0.345433 0.351289 0.326558 0.33304 0.339364 0.334064 0.338434 0.342697 0.323942 0.324999 0.325839 0.339364 0.345433 0.351289 0.342697 0.346788 0.350775 0.325839 0.326336 0.326554 0.296826 0.303726 0.309857 0.332392 0.33864 0.344295 0.351289 0.35685 0.362192 0.309857 0.314925 0.318882 0.344295 0.349213 0.35338 0.362192 0.367361 0.372509 0.351289 0.35685 0.362192 0.350775 0.354682 0.358619 0.326554 0.326557 0.326493 0.362192 0.367361 0.372509 0.358619 0.362722 0.367066 0.326493 0.326655 0.327603 0 0 0 0.111864 0.113425 0.114378 0.201919 0.20287 0.202813 0 0 0 0.114378 0.114588 0.113931 0.202813 0.201557 0.199013 0.201919 0.20287 0.202813 0.269674 0.269422 0.267996 0.318882 0.317989 0.31593 0.202813 0.201557 0.199013 0.267996 0.265206 0.260986 0.31593 0.312424 0.307419 0 0 0 0.113931 0.112377 0.109784 0.199013 0.195121 0.189816 0 0 0 0.109784 0.106304 0.101815 0.189816 0.183255 0.175449 0.199013 0.195121 0.189816 0.260986 0.255264 0.247994 0.307419 0.300759 0.292417 0.189816 0.183255 0.175449 0.247994 0.239346 0.229285 0.292417 0.282548 0.271186 0.318882 0.317989 0.31593 0.35338 0.353328 0.352137 0.372509 0.374987 0.37655 0.31593 0.312424 0.307419 0.352137 0.349364 0.344956 0.37655 0.376422 0.37446 0.372509 0.374987 0.37655 0.367066 0.373724 0.380228 0.327603 0.337841 0.349943 0.37655 0.376422 0.37446 0.380228 0.385701 0.389805 0.349943 0.362895 0.376484 0.307419 0.300759 0.292417 0.344956 0.338508 0.330007 0.37446 0.369837 0.362496 0.292417 0.282548 0.271186 0.330007 0.319563 0.307177 0.362496 0.352404 0.339656 0.37446 0.369837 0.362496 0.389805 0.390775 0.388345 0.376484 0.388121 0.396582 0.362496 0.352404 0.339656 0.388345 0.381191 0.369614 0.396582 0.398158 0.392294 0.269722 0.260706 0.254632 0.269855 0.264601 0.261418 0.265904 0.26499 0.265323 0.254632 0.249394 0.245759 0.261418 0.258669 0.257136 0.265323 0.265405 0.266157 0.265904 0.26499 0.265323 0.257881 0.262083 0.26656 0.246708 0.257049 0.265819 0.265323 0.265405 0.266157 0.26656 0.269843 0.272962 0.265819 0.272421 0.277825 0.245759 0.242462 0.239816 0.257136 0.255515 0.254153 0.266157 0.26632 0.266278 0.239816 0.237472 0.235574 0.254153 0.252746 0.251413 0.266278 0.265801 0.265021 0.266157 0.26632 0.266278 0.272962 0.274982 0.27625 0.277825 0.281626 0.284115 0.266278 0.265801 0.265021 0.27625 0.276694 0.276398 0.284115 0.285403 0.285544 0.246708 0.257049 0.265819 0.234832 0.251144 0.263982 0.224429 0.245786 0.261885 0.265819 0.272421 0.277825 0.263982 0.273696 0.281081 0.261885 0.274089 0.282984 0.224429 0.245786 0.261885 0.218432 0.242805 0.260664 0.217873 0.242321 0.260412 0.261885 0.274089 0.282984 0.260664 0.27425 0.283949 0.260412 0.274185 0.283949 0.277825 0.281626 0.284115 0.281081 0.286444 0.289967 0.282984 0.28955 0.293855 0.284115 0.285403 0.285544 0.289967 0.291967 0.29246 0.293855 0.296401 0.297145 0.282984 0.28955 0.293855 0.283949 0.291154 0.295879 0.283949 0.291253 0.296033 0.293855 0.296401 0.297145 0.295879 0.298705 0.299598 0.296033 0.298921 0.299822 0 0 0 0.101815 0.0985335 0.0943394 0.175449 0.169368 0.162183 0 0 0 0.0943394 0.0896122 0.0843987 0.162183 0.154352 0.146023 0.175449 0.169368 0.162183 0.229285 0.221331 0.212229 0.271186 0.262015 0.251631 0.162183 0.154352 0.146023 0.212229 0.202548 0.192408 0.251631 0.240706 0.229357 0 0 0 0.0843987 0.0790485 0.0736905 0.146023 0.137645 0.129401 0 0 0 0.0736905 0.0685353 0.0637331 0.129401 0.121584 0.114356 0.146023 0.137645 0.129401 0.192408 0.182394 0.172662 0.229357 0.218323 0.207732 0.129401 0.121584 0.114356 0.172662 0.16357 0.155274 0.207732 0.197998 0.189262 0.271186 0.262015 0.251631 0.307177 0.297146 0.285682 0.339656 0.328933 0.31614 0.251631 0.240706 0.229357 0.285682 0.273589 0.261 0.31614 0.302464 0.288096 0.339656 0.328933 0.31614 0.369614 0.358462 0.344117 0.392294 0.382301 0.366756 0.31614 0.302464 0.288096 0.344117 0.32825 0.311092 0.366756 0.348168 0.327259 0.229357 0.218323 0.207732 0.261 0.248948 0.237521 0.288096 0.274582 0.261972 0.207732 0.197998 0.189262 0.237521 0.227228 0.218112 0.261972 0.251013 0.24164 0.288096 0.274582 0.261972 0.311092 0.295369 0.280856 0.327259 0.308625 0.291978 0.261972 0.251013 0.24164 0.280856 0.268851 0.259165 0.291978 0.279321 0.269722 0 0 0 0.0637331 0.0581615 0.0533185 0.114356 0.105767 0.0982278 0 0 0 0.0533185 0.0491398 0.0457165 0.0982278 0.0917266 0.0863487 0.114356 0.105767 0.0982278 0.155274 0.145125 0.136254 0.189262 0.178388 0.168956 0.0982278 0.0917266 0.0863487 0.136254 0.128596 0.122258 0.168956 0.160842 0.154156 0 0 0 0.0457165 0.0429568 0.0409547 0.0863487 0.0820004 0.0787209 0 0 0 0.0409547 0.0395799 0.0388943 0.0787209 0.0764107 0.0750892 0.0863487 0.0820004 0.0787209 0.122258 0.117085 0.113127 0.154156 0.148663 0.144421 0.0787209 0.0764107 0.0750892 0.113127 0.110278 0.108585 0.144421 0.141307 0.139381 0.189262 0.178388 0.168956 0.218112 0.206808 0.197242 0.24164 0.230416 0.221201 0.168956 0.160842 0.154156 0.197242 0.189064 0.182436 0.221201 0.213402 0.207234 0.24164 0.230416 0.221201 0.259165 0.248531 0.240387 0.269722 0.260706 0.254632 0.221201 0.213402 0.207234 0.240387 0.233503 0.228325 0.254632 0.249394 0.245759 0.154156 0.148663 0.144421 0.182436 0.176957 0.172718 0.207234 0.202085 0.198092 0.144421 0.141307 0.139381 0.172718 0.169538 0.167478 0.198092 0.194992 0.192876 0.207234 0.202085 0.198092 0.228325 0.223895 0.22044 0.245759 0.242462 0.239816 0.198092 0.194992 0.192876 0.22044 0.217635 0.215575 0.239816 0.237472 0.235574 0.267225 0.272344 0.277909 0.254424 0.260445 0.267201 0.23309 0.239306 0.246481 0.277909 0.284028 0.290507 0.267201 0.274823 0.283192 0.246481 0.254768 0.264135 0.23309 0.239306 0.246481 0.20435 0.210107 0.216945 0.169683 0.174452 0.180306 0.246481 0.254768 0.264135 0.216945 0.225038 0.234441 0.180306 0.187414 0.195916 0.290507 0.297312 0.30419 0.283192 0.292294 0.301916 0.264135 0.274616 0.286052 0.30419 0.311485 0.318849 0.301916 0.312147 0.322665 0.286052 0.298295 0.311033 0.264135 0.274616 0.286052 0.234441 0.245271 0.257451 0.195916 0.206011 0.217756 0.286052 0.298295 0.311033 0.257451 0.270709 0.284807 0.217756 0.230857 0.245201 0.169683 0.174452 0.180306 0.130713 0.134177 0.138602 0.0888255 0.0909083 0.093714 0.180306 0.187414 0.195916 0.138602 0.144128 0.150942 0.093714 0.0973339 0.101944 0.0888255 0.0909083 0.093714 0.0450686 0.0459279 0.0471951 0 0 0 0.093714 0.0973339 0.101944 0.0471951 0.0488879 0.0511339 0 0 0 0.195916 0.206011 0.217756 0.150942 0.159294 0.169373 0.101944 0.107778 0.115123 0.217756 0.230857 0.245201 0.169373 0.180918 0.194034 0.115123 0.123745 0.133909 0.101944 0.107778 0.115123 0.0511339 0.0540422 0.0579309 0 0 0 0.115123 0.123745 0.133909 0.0579309 0.0625476 0.0682117 0 0 0 0.234599 0.236708 0.239137 0.218921 0.221208 0.223809 0.198863 0.201071 0.203544 0.239137 0.242097 0.24557 0.223809 0.226947 0.230611 0.203544 0.206499 0.209929 0.198863 0.201071 0.203544 0.174623 0.176565 0.178695 0.146483 0.148049 0.149718 0.203544 0.206499 0.209929 0.178695 0.181214 0.184104 0.149718 0.151663 0.15385 0.24557 0.249702 0.254525 0.230611 0.23501 0.2402 0.209929 0.214076 0.219008 0.254525 0.260407 0.267225 0.2402 0.246687 0.254424 0.219008 0.225338 0.23309 0.209929 0.214076 0.219008 0.184104 0.187617 0.191814 0.15385 0.156512 0.159685 0.219008 0.225338 0.23309 0.191814 0.197366 0.20435 0.159685 0.164041 0.169683 0.146483 0.148049 0.149718 0.114739 0.115888 0.117061 0.0796361 0.0803739 0.0810798 0.149718 0.151663 0.15385 0.117061 0.118405 0.119863 0.0810798 0.0818749 0.0826823 0.0796361 0.0803739 0.0810798 0.0413551 0.0417122 0.0420164 0 0 0 0.0810798 0.0818749 0.0826823 0.0420164 0.0423637 0.0426664 0 0 0 0.15385 0.156512 0.159685 0.119863 0.121635 0.123705 0.0826823 0.0836644 0.0847414 0.159685 0.164041 0.169683 0.123705 0.126698 0.130713 0.0847414 0.0864371 0.0888255 0.0826823 0.0836644 0.0847414 0.0426664 0.043055 0.0434035 0 0 0 0.0847414 0.0864371 0.0888255 0.0434035 0.0440609 0.0450686 0 0 0 0.253454 0.248507 0.242911 0.253377 0.248789 0.243611 0.254529 0.250731 0.246461 0.242911 0.23647 0.229087 0.243611 0.237664 0.230856 0.246461 0.241587 0.236022 0.254529 0.250731 0.246461 0.256145 0.253443 0.250433 0.257177 0.255721 0.254135 0.246461 0.241587 0.236022 0.250433 0.24704 0.243188 0.254135 0.252416 0.250498 0.229087 0.22032 0.210048 0.230856 0.222765 0.213272 0.236022 0.22939 0.221584 0.210048 0.197805 0.183187 0.213272 0.201926 0.188323 0.221584 0.212198 0.200838 0.236022 0.22939 0.221584 0.243188 0.238569 0.233093 0.250498 0.248159 0.245329 0.221584 0.212198 0.200838 0.233093 0.226429 0.218203 0.245329 0.24178 0.237169 0.257177 0.255721 0.254135 0.256474 0.256241 0.25605 0.252989 0.253818 0.254829 0.254135 0.252416 0.250498 0.25605 0.255965 0.255934 0.254829 0.256149 0.25774 0.252989 0.253818 0.254829 0.245874 0.247498 0.249399 0.234599 0.236708 0.239137 0.254829 0.256149 0.25774 0.249399 0.251755 0.254538 0.239137 0.242097 0.24557 0.250498 0.248159 0.245329 0.255934 0.255826 0.255597 0.25774 0.259568 0.261614 0.245329 0.24178 0.237169 0.255597 0.255145 0.254165 0.261614 0.263925 0.266248 0.25774 0.259568 0.261614 0.254538 0.257808 0.261575 0.24557 0.249702 0.254525 0.261614 0.263925 0.266248 0.261575 0.266045 0.271024 0.254525 0.260407 0.267225 0.183187 0.171833 0.158974 0.188323 0.177698 0.16561 0.200838 0.191856 0.181535 0.158974 0.144785 0.128828 0.16561 0.152216 0.13707 0.181535 0.170004 0.156813 0.200838 0.191856 0.181535 0.218203 0.211539 0.203736 0.237169 0.233212 0.22838 0.181535 0.170004 0.156813 0.203736 0.194893 0.184567 0.22838 0.222751 0.215905 0.128828 0.111425 0.0920403 0.13707 0.12045 0.101803 0.156813 0.142156 0.12546 0.0920403 0.0721219 0.0516071 0.101803 0.0825292 0.0624872 0.12546 0.108015 0.0895034 0.156813 0.142156 0.12546 0.184567 0.172856 0.159189 0.215905 0.207861 0.198079 0.12546 0.108015 0.0895034 0.159189 0.144705 0.128897 0.198079 0.187545 0.17565 0.237169 0.233212 0.22838 0.254165 0.252976 0.251219 0.266248 0.267638 0.268799 0.22838 0.222751 0.215905 0.251219 0.248966 0.245841 0.268799 0.269808 0.270344 0.266248 0.267638 0.268799 0.271024 0.274564 0.278219 0.267225 0.272344 0.277909 0.268799 0.269808 0.270344 0.278219 0.28208 0.285885 0.277909 0.284028 0.290507 0.215905 0.207861 0.198079 0.245841 0.241814 0.236418 0.270344 0.270365 0.269484 0.198079 0.187545 0.17565 0.236418 0.230507 0.223432 0.269484 0.26843 0.266678 0.270344 0.270365 0.269484 0.285885 0.289594 0.2929 0.290507 0.297312 0.