# vtk DataFile Version 3.0
#This file was generated by the deal.II library on 2024/9/17 at 11:46:35
ASCII
DATASET UNSTRUCTURED_GRID

POINTS 5760 double
0.11 0.11 0
0.09625 0.10875 0
0.0825 0.1075 0
0.10875 0.09625 0
0.0951562 0.0951563 0
0.0815625 0.0940625 0
0.1075 0.0825 0
0.0940625 0.0815625 0
0.080625 0.080625 0
0.0825 0.1075 0
0.06875 0.10625 0
0.055 0.105 0
0.0815625 0.0940625 0
0.0679688 0.0929688 0
0.054375 0.091875 0
0.080625 0.080625 0
0.0671875 0.0796875 0
0.05375 0.07875 0
0.1075 0.0825 0
0.0940625 0.0815625 0
0.080625 0.080625 0
0.10625 0.06875 0
0.0929688 0.0679688 0
0.0796875 0.0671875 0
0.105 0.055 0
0.091875 0.054375 0
0.07875 0.05375 0
0.080625 0.080625 0
0.0671875 0.0796875 0
0.05375 0.07875 0
0.0796875 0.0671875 0
0.0664063 0.0664062 0
0.053125 0.065625 0
0.07875 0.05375 0
0.065625 0.053125 0
0.0525 0.0525 0
0.055 0.105 0
0.04125 0.10375 0
0.0275 0.1025 0
0.054375 0.091875 0
0.0407813 0.0907813 0
0.0271875 0.0896875 0
0.05375 0.07875 0
0.0403125 0.0778125 0
0.026875 0.076875 0
0.0275 0.1025 0
0.01375 0.10125 0
0 0.1 0
0.0271875 0.0896875 0
0.0135938 0.0885938 0
0 0.0875 0
0.026875 0.076875 0
0.0134375 0.0759375 0
0 0.075 0
0.05375 0.07875 0
0.0403125 0.0778125 0
0.026875 0.076875 0
0.053125 0.065625 0
0.0398438 0.0648438 0
0.0265625 0.0640625 0
0.0525 0.0525 0
0.039375 0.051875 0
0.02625 0.05125 0
0.026875 0.076875 0
0.0134375 0.0759375 0
0 0.075 0
0.0265625 0.0640625 0
0.0132813 0.0632813 0
0 0.0625 0
0.02625 0.05125 0
0.013125 0.050625 0
0 0.05 0
0.105 0.055 0
0.091875 0.054375 0
0.07875 0.05375 0
0.10375 0.04125 0
0.0907813 0.0407813 0
0.0778125 0.0403125 0
0.1025 0.0275 0
0.0896875 0.0271875 0
0.076875 0.026875 0
0.07875 0.05375 0
0.065625 0.053125 0
0.0525 0.0525 0
0.0778125 0.0403125 0
0.0648438 0.0398438 0
0.051875 0.039375 0
0.076875 0.026875 0
0.0640625 0.0265625 0
0.05125 0.02625 0
0.1025 0.0275 0
0.0896875 0.0271875 0
0.076875 0.026875 0
0.10125 0.01375 0
0.0885937 0.0135938 0
0.0759375 0.0134375 0
0.1 0 0
0.0875 0 0
0.075 0 0
0.076875 0.026875 0
0.0640625 0.0265625 0
0.05125 0.02625 0
0.0759375 0.0134375 0
0.0632812 0.0132813 0
0.050625 0.013125 0
0.075 0 0
0.0625 0 0
0.05 0 0
0.0525 0.0525 0
0.039375 0.051875 0
0.02625 0.05125 0
0.051875 0.039375 0
0.0389063 0.0389063 0
0.0259375 0.0384375 0
0.05125 0.02625 0
0.0384375 0.0259375 0
0.025625 0.025625 0
0.02625 0.05125 0
0.013125 0.050625 0
0 0.05 0
0.0259375 0.0384375 0
0.0129688 0.0379688 0
0 0.0375 0
0.025625 0.025625 0
0.0128125 0.0253125 0
0 0.025 0
0.05125 0.02625 0
0.0384375 0.0259375 0
0.025625 0.025625 0
0.050625 0.013125 0
0.0379688 0.0129688 0
0.0253125 0.0128125 0
0.05 0 0
0.0375 0 0
0.025 0 0
0.025625 0.025625 0
0.0128125 0.0253125 0
0 0.025 0
0.0253125 0.0128125 0
0.0126563 0.0126563 0
0 0.0125 0
0.025 0 0
0.0125 0 0
0 0 0
0.2 0.1 0
0.18875 0.10125 0
0.1775 0.1025 0
0.2 0.0875 0
0.188594 0.0885938 0
0.177187 0.0896875 0
0.2 0.075 0
0.188438 0.0759375 0
0.176875 0.076875 0
0.1775 0.1025 0
0.16625 0.10375 0
0.155 0.105 0
0.177187 0.0896875 0
0.165781 0.0907813 0
0.154375 0.091875 0
0.176875 0.076875 0
0.165313 0.0778125 0
0.15375 0.07875 0
0.2 0.075 0
0.188438 0.0759375 0
0.176875 0.076875 0
0.2 0.0625 0
0.188281 0.0632813 0
0.176563 0.0640625 0
0.2 0.05 0
0.188125 0.050625 0
0.17625 0.05125 0
0.176875 0.076875 0
0.165313 0.0778125 0
0.15375 0.07875 0
0.176563 0.0640625 0
0.164844 0.0648438 0
0.153125 0.065625 0
0.17625 0.05125 0
0.164375 0.051875 0
0.1525 0.0525 0
0.155 0.105 0
0.14375 0.10625 0
0.1325 0.1075 0
0.154375 0.091875 0
0.142969 0.0929688 0
0.131562 0.0940625 0
0.15375 0.07875 0
0.142187 0.0796875 0
0.130625 0.080625 0
0.1325 0.1075 0
0.12125 0.10875 0
0.11 0.11 0
0.131562 0.0940625 0
0.120156 0.0951563 0
0.10875 0.09625 0
0.130625 0.080625 0
0.119063 0.0815625 0
0.1075 0.0825 0
0.15375 0.07875 0
0.142187 0.0796875 0
0.130625 0.080625 0
0.153125 0.065625 0
0.141406 0.0664062 0
0.129688 0.0671875 0
0.1525 0.0525 0
0.140625 0.053125 0
0.12875 0.05375 0
0.130625 0.080625 0
0.119063 0.0815625 0
0.1075 0.0825 0
0.129688 0.0671875 0
0.117969 0.0679688 0
0.10625 0.06875 0
0.12875 0.05375 0
0.116875 0.054375 0
0.105 0.055 0
0.2 0.05 0
0.188125 0.050625 0
0.17625 0.05125 0
0.2 0.0375 0
0.187969 0.0379688 0
0.175938 0.0384375 0
0.2 0.025 0
0.187813 0.0253125 0
0.175625 0.025625 0
0.17625 0.05125 0
0.164375 0.051875 0
0.1525 0.0525 0
0.175938 0.0384375 0
0.163906 0.0389063 0
0.151875 0.039375 0
0.175625 0.025625 0
0.163438 0.0259375 0
0.15125 0.02625 0
0.2 0.025 0
0.187813 0.0253125 0
0.175625 0.025625 0
0.2 0.0125 0
0.187656 0.0126563 0
0.175313 0.0128125 0
0.2 0 0
0.1875 0 0
0.175 0 0
0.175625 0.025625 0
0.163438 0.0259375 0
0.15125 0.02625 0
0.175313 0.0128125 0
0.162969 0.0129688 0
0.150625 0.013125 0
0.175 0 0
0.1625 0 0
0.15 0 0
0.1525 0.0525 0
0.140625 0.053125 0
0.12875 0.05375 0
0.151875 0.039375 0
0.139844 0.0398438 0
0.127813 0.0403125 0
0.15125 0.02625 0
0.139063 0.0265625 0
0.126875 0.026875 0
0.12875 0.05375 0
0.116875 0.054375 0
0.105 0.055 0
0.127813 0.0403125 0
0.115781 0.0407813 0
0.10375 0.04125 0
0.126875 0.026875 0
0.114688 0.0271875 0
0.1025 0.0275 0
0.15125 0.02625 0
0.139063 0.0265625 0
0.126875 0.026875 0
0.150625 0.013125 0
0.138281 0.0132813 0
0.125938 0.0134375 0
0.15 0 0
0.1375 0 0
0.125 0 0
0.126875 0.026875 0
0.114688 0.0271875 0
0.1025 0.0275 0
0.125938 0.0134375 0
0.113594 0.0135938 0
0.10125 0.01375 0
0.125 0 0
0.1125 0 0
0.1 0 0
0.1 0.2 0
0.0875 0.2 0
0.075 0.2 0
0.10125 0.18875 0
0.0885937 0.188594 0
0.0759375 0.188438 0
0.1025 0.1775 0
0.0896875 0.177187 0
0.076875 0.176875 0
0.075 0.2 0
0.0625 0.2 0
0.05 0.2 0
0.0759375 0.188438 0
0.0632813 0.188281 0
0.050625 0.188125 0
0.076875 0.176875 0
0.0640625 0.176563 0
0.05125 0.17625 0
0.1025 0.1775 0
0.0896875 0.177187 0
0.076875 0.176875 0
0.10375 0.16625 0
0.0907813 0.165781 0
0.0778125 0.165313 0
0.105 0.155 0
0.091875 0.154375 0
0.07875 0.15375 0
0.076875 0.176875 0
0.0640625 0.176563 0
0.05125 0.17625 0
0.0778125 0.165313 0
0.0648438 0.164844 0
0.051875 0.164375 0
0.07875 0.15375 0
0.065625 0.153125 0
0.0525 0.1525 0
0.05 0.2 0
0.0375 0.2 0
0.025 0.2 0
0.050625 0.188125 0
0.0379688 0.187969 0
0.0253125 0.187813 0
0.05125 0.17625 0
0.0384375 0.175938 0
0.025625 0.175625 0
0.025 0.2 0
0.0125 0.2 0
0 0.2 0
0.0253125 0.187813 0
0.0126563 0.187656 0
0 0.1875 0
0.025625 0.175625 0
0.0128125 0.175313 0
0 0.175 0
0.05125 0.17625 0
0.0384375 0.175938 0
0.025625 0.175625 0
0.051875 0.164375 0
0.0389063 0.163906 0
0.0259375 0.163438 0
0.0525 0.1525 0
0.039375 0.151875 0
0.02625 0.15125 0
0.025625 0.175625 0
0.0128125 0.175313 0
0 0.175 0
0.0259375 0.163438 0
0.0129688 0.162969 0
0 0.1625 0
0.02625 0.15125 0
0.013125 0.150625 0
0 0.15 0
0.105 0.155 0
0.091875 0.154375 0
0.07875 0.15375 0
0.10625 0.14375 0
0.0929688 0.142969 0
0.0796875 0.142187 0
0.1075 0.1325 0
0.0940625 0.131562 0
0.080625 0.130625 0
0.07875 0.15375 0
0.065625 0.153125 0
0.0525 0.1525 0
0.0796875 0.142187 0
0.0664063 0.141406 0
0.053125 0.140625 0
0.080625 0.130625 0
0.0671875 0.129688 0
0.05375 0.12875 0
0.1075 0.1325 0
0.0940625 0.131562 0
0.080625 0.130625 0
0.10875 0.12125 0
0.0951563 0.120156 0
0.0815625 0.119063 0
0.11 0.11 0
0.09625 0.10875 0
0.0825 0.1075 0
0.080625 0.130625 0
0.0671875 0.129688 0
0.05375 0.12875 0
0.0815625 0.119063 0
0.0679688 0.117969 0
0.054375 0.116875 0
0.0825 0.1075 0
0.06875 0.10625 0
0.055 0.105 0
0.0525 0.1525 0
0.039375 0.151875 0
0.02625 0.15125 0
0.053125 0.140625 0
0.0398438 0.139844 0
0.0265625 0.139063 0
0.05375 0.12875 0
0.0403125 0.127813 0
0.026875 0.126875 0
0.02625 0.15125 0
0.013125 0.150625 0
0 0.15 0
0.0265625 0.139063 0
0.0132813 0.138281 0
0 0.1375 0
0.026875 0.126875 0
0.0134375 0.125938 0
0 0.125 0
0.05375 0.12875 0
0.0403125 0.127813 0
0.026875 0.126875 0
0.054375 0.116875 0
0.0407813 0.115781 0
0.0271875 0.114688 0
0.055 0.105 0
0.04125 0.10375 0
0.0275 0.1025 0
0.026875 0.126875 0
0.0134375 0.125938 0
0 0.125 0
0.0271875 0.114688 0
0.0135938 0.113594 0
0 0.1125 0
0.0275 0.1025 0
0.01375 0.10125 0
0 0.1 0
0.29 0.11 0
0.27875 0.10875 0
0.2675 0.1075 0
0.29125 0.09625 0
0.279844 0.0951563 0
0.268437 0.0940625 0
0.2925 0.0825 0
0.280938 0.0815625 0
0.269375 0.080625 0
0.2675 0.1075 0
0.25625 0.10625 0
0.245 0.105 0
0.268437 0.0940625 0
0.257031 0.0929688 0
0.245625 0.091875 0
0.269375 0.080625 0
0.257812 0.0796875 0
0.24625 0.07875 0
0.2925 0.0825 0
0.280938 0.0815625 0
0.269375 0.080625 0
0.29375 0.06875 0
0.282031 0.0679688 0
0.270313 0.0671875 0
0.295 0.055 0
0.283125 0.054375 0
0.27125 0.05375 0
0.269375 0.080625 0
0.257812 0.0796875 0
0.24625 0.07875 0
0.270313 0.0671875 0
0.258594 0.0664062 0
0.246875 0.065625 0
0.27125 0.05375 0
0.259375 0.053125 0
0.2475 0.0525 0
0.245 0.105 0
0.23375 0.10375 0
0.2225 0.1025 0
0.245625 0.091875 0
0.234219 0.0907813 0
0.222813 0.0896875 0
0.24625 0.07875 0
0.234687 0.0778125 0
0.223125 0.076875 0
0.2225 0.1025 0
0.21125 0.10125 0
0.2 0.1 0
0.222813 0.0896875 0
0.211406 0.0885937 0
0.2 0.0875 0
0.223125 0.076875 0
0.211563 0.0759375 0
0.2 0.075 0
0.24625 0.07875 0
0.234687 0.0778125 0
0.223125 0.076875 0
0.246875 0.065625 0
0.235156 0.0648438 0
0.223438 0.0640625 0
0.2475 0.0525 0
0.235625 0.051875 0
0.22375 0.05125 0
0.223125 0.076875 0
0.211563 0.0759375 0
0.2 0.075 0
0.223438 0.0640625 0
0.211719 0.0632813 0
0.2 0.0625 0
0.22375 0.05125 0
0.211875 0.050625 0
0.2 0.05 0
0.295 0.055 0
0.283125 0.054375 0
0.27125 0.05375 0
0.29625 0.04125 0
0.284219 0.0407813 0
0.272188 0.0403125 0
0.2975 0.0275 0
0.285312 0.0271875 0
0.273125 0.026875 0
0.27125 0.05375 0
0.259375 0.053125 0
0.2475 0.0525 0
0.272188 0.0403125 0
0.260156 0.0398438 0
0.248125 0.039375 0
0.273125 0.026875 0
0.260937 0.0265625 0
0.24875 0.02625 0
0.2975 0.0275 0
0.285312 0.0271875 0
0.273125 0.026875 0
0.29875 0.01375 0
0.286406 0.0135938 0
0.274062 0.0134375 0
0.3 0 0
0.2875 0 0
0.275 0 0
0.273125 0.026875 0
0.260937 0.0265625 0
0.24875 0.02625 0
0.274062 0.0134375 0
0.261719 0.0132813 0
0.249375 0.013125 0
0.275 0 0
0.2625 0 0
0.25 0 0
0.2475 0.0525 0
0.235625 0.051875 0
0.22375 0.05125 0
0.248125 0.039375 0
[...]
POINT_DATA 5760
SCALARS x_velo double 1
LOOKUP_TABLE default
0.259827 0.249939 0.24309 0.248518 0.237159 0.228401 0.231185 0.219243 0.209468 0.24309 0.237178 0.23294 0.228401 0.220977 0.21533 0.209468 0.201185 0.194626 0.231185 0.219243 0.209468 0.208578 0.196552 0.186421 0.181093 0.169499 0.159506 0.209468 0.201185 0.194626 0.186421 0.177774 0.170784 0.159506 0.150941 0.14392 0.23294 0.22915 0.226087 0.21533 0.210512 0.206729 0.194626 0.189154 0.184901 0.226087 0.223425 0.221297 0.206729 0.203676 0.201443 0.184901 0.181607 0.179358 0.194626 0.189154 0.184901 0.170784 0.165013 0.160551 0.14392 0.13817 0.133743 0.184901 0.181607 0.179358 0.160551 0.157206 0.155042 0.133743 0.130496 0.128495 0.181093 0.169499 0.159506 0.148638 0.13785 0.12849 0.109401 0.100341 0.0924606 0.159506 0.150941 0.14392 0.12849 0.120451 0.113847 0.0924606 0.0857089 0.0801703 0.109401 0.100341 0.0924606 0.0607997 0.0550061 0.0500249 0 0 0 0.0924606 0.0857089 0.0801703 0.0500249 0.0457562 0.0422949 0 0 0 0.14392 0.13817 0.133743 0.113847 0.108478 0.104393 0.0801703 0.0757149 0.0723811 0.133743 0.130496 0.128495 0.104393 0.101457 0.0997174 0.0723811 0.0700413 0.0687091 0.0801703 0.0757149 0.0723811 0.0422949 0.0395175 0.037519 0 0 0 0.0723811 0.0700413 0.0687091 0.037519 0.0361492 0.03547 0 0 0 0.386494 0.376162 0.36019 0.364526 0.352963 0.337934 0.335978 0.324685 0.311043 0.36019 0.341104 0.319624 0.337934 0.321253 0.303195 0.311043 0.296395 0.280951 0.335978 0.324685 0.311043 0.304715 0.294086 0.281748 0.269661 0.259979 0.248817 0.311043 0.296395 0.280951 0.281748 0.26866 0.254975 0.248817 0.236987 0.224629 0.319624 0.300358 0.283103 0.303195 0.286614 0.271343 0.280951 0.266432 0.252909 0.283103 0.269887 0.259827 0.271343 0.258701 0.248518 0.252909 0.241175 0.231185 0.280951 0.266432 0.252909 0.254975 0.241881 0.229492 0.224629 0.212611 0.201089 0.252909 0.241175 0.231185 0.229492 0.218369 0.208578 0.201089 0.190529 0.181093 0.269661 0.259979 0.248817 0.228098 0.21984 0.210161 0.174156 0.168004 0.160498 0.248817 0.236987 0.224629 0.210161 0.199761 0.188784 0.160498 0.152204 0.143289 0.174156 0.168004 0.160498 0.100551 0.0973342 0.0930293 0 0 0 0.160498 0.152204 0.143289 0.0930293 0.0881023 0.0825957 0 0 0 0.224629 0.212611 0.201089 0.188784 0.177929 0.167385 0.143289 0.134301 0.125457 0.201089 0.190529 0.181093 0.167385 0.15756 0.148638 0.125457 0.117093 0.109401 0.143289 0.134301 0.125457 0.0825957 0.0769328 0.0712639 0 0 0 0.125457 0.117093 0.109401 0.0712639 0.0658274 0.0607997 0 0 0 0.217873 0.242321 0.260412 0.217315 0.241528 0.259262 0.22219 0.243237 0.259084 0.260412 0.274185 0.283949 0.259262 0.272743 0.282358 0.259084 0.271077 0.279804 0.22219 0.243237 0.259084 0.231444 0.247298 0.259768 0.242119 0.251884 0.26018 0.259084 0.271077 0.279804 0.259768 0.269174 0.276307 0.26018 0.266384 0.271455 0.283949 0.291253 0.296033 0.282358 0.289495 0.294165 0.279804 0.286231 0.290426 0.296033 0.298921 0.299822 0.294165 0.296949 0.297814 0.290426 0.292889 0.293575 0.279804 0.286231 0.290426 0.276307 0.281465 0.284824 0.271455 0.274986 0.277257 0.290426 0.292889 0.293575 0.284824 0.286699 0.287106 0.277257 0.278379 0.278406 0.242119 0.251884 0.26018 0.252031 0.255562 0.259472 0.258743 0.257075 0.256764 0.26018 0.266384 0.271455 0.259472 0.262277 0.264987 0.256764 0.256297 0.25657 0.258743 0.257075 0.256764 0.261349 0.255266 0.251372 0.259827 0.249939 0.24309 0.256764 0.256297 0.25657 0.251372 0.248006 0.245932 0.24309 0.237178 0.23294 0.271455 0.274986 0.277257 0.264987 0.266678 0.267674 0.25657 0.256347 0.255983 0.277257 0.278379 0.278406 0.267674 0.267914 0.267475 0.255983 0.255263 0.254313 0.25657 0.256347 0.255983 0.245932 0.243871 0.24214 0.23294 0.22915 0.226087 0.255983 0.255263 0.254313 0.24214 0.240454 0.23892 0.226087 0.223425 0.221297 0.328588 0.338064 0.349299 0.362119 0.368672 0.375138 0.36631 0.369358 0.371546 0.349299 0.361298 0.373903 0.375138 0.380648 0.384883 0.371546 0.372055 0.370711 0.36631 0.369358 0.371546 0.348114 0.348995 0.34869 0.314013 0.314274 0.313258 0.371546 0.372055 0.370711 0.34869 0.346677 0.34288 0.313258 0.310601 0.306241 0.373903 0.384585 0.392174 0.384883 0.386002 0.383685 0.370711 0.366539 0.359434 0.392174 0.393021 0.386494 0.383685 0.376455 0.364526 0.359434 0.349215 0.335978 0.370711 0.366539 0.359434 0.34288 0.336787 0.328366 0.306241 0.299942 0.291668 0.359434 0.349215 0.335978 0.328366 0.317676 0.304715 0.291668 0.281563 0.269661 0.314013 0.314274 0.313258 0.264108 0.265103 0.264822 0.195762 0.197828 0.19884 0.313258 0.310601 0.306241 0.264822 0.262996 0.25954 0.19884 0.198536 0.196797 0.195762 0.197828 0.19884 0.107115 0.109326 0.110945 0 0 0 0.19884 0.198536 0.196797 0.110945 0.111778 0.111686 0 0 0 0.306241 0.299942 0.291668 0.25954 0.254313 0.247253 0.196797 0.193503 0.188558 0.291668 0.281563 0.269661 0.247253 0.238531 0.228098 0.188558 0.182112 0.174156 0.196797 0.193503 0.188558 0.111686 0.110593 0.108324 0 0 0 0.188558 0.182112 0.174156 0.108324 0.105031 0.100551 0 0 0 0.31885 0.321322 0.32341 0.322676 0.328469 0.334012 0.311052 0.31913 0.326988 0.32341 0.324973 0.326069 0.334012 0.339199 0.344086 0.326988 0.334477 0.34161 0.311052 0.31913 0.326988 0.284832 0.294335 0.303683 0.245229 0.255262 0.265297 0.326988 0.334477 0.34161 0.303683 0.31266 0.321206 0.265297 0.2751 0.284555 0.326069 0.326756 0.327175 0.344086 0.348691 0.35313 0.34161 0.348281 0.354562 0.327175 0.327611 0.328588 0.35313 0.357574 0.362119 0.354562 0.360512 0.36631 0.34161 0.348281 0.354562 0.321206 0.329087 0.336285 0.284555 0.293346 0.301378 0.354562 0.360512 0.36631 0.336285 0.342629 0.348114 0.301378 0.308293 0.314013 0.245229 0.255262 0.265297 0.194061 0.203445 0.213032 0.133931 0.141353 0.149107 0.265297 0.2751 0.284555 0.213032 0.222639 0.232164 0.149107 0.157104 0.1653 0.133931 0.141353 0.149107 0.0682239 0.0724273 0.0769054 0 0 0 0.149107 0.157104 0.1653 0.0769054 0.0816218 0.0866269 0 0 0 0.284555 0.293346 0.301378 0.232164 0.24128 0.249864 0.1653 0.173449 0.181443 0.301378 0.308293 0.314013 0.249864 0.257514 0.264108 0.181443 0.188938 0.195762 0.1653 0.173449 0.181443 0.0866269 0.0917559 0.0970023 0 0 0 0.181443 0.188938 0.195762 0.0970023 0.102141 0.107115 0 0 0 0.0515918 0.0407131 0.030386 0.0624702 0.0513802 0.0407689 0.0894826 0.0782869 0.0674051 0.030386 0.0204725 0.0110519 0.0407689 0.0304828 0.020603 0.0674051 0.0566191 0.045999 0.0894826 0.0782869 0.0674051 0.128873 0.118031 0.107248 0.175624 0.165871 0.155946 0.0674051 0.0566191 0.045999 0.107248 0.0962481 0.0850781 0.155946 0.145497 0.134557 0.0110519 0.00235043 -0.00508097 0.020603 0.011356 0.00325165 0.045999 0.035718 0.0261825 -0.00508097 -0.0110949 -0.0149383 0.00325165 -0.00357097 -0.00842983 0.0261825 0.0174297 0.00991663 0.045999 0.035718 0.0261825 0.0850781 0.0738232 0.0627298 0.134557 0.123106 0.111259 0.0261825 0.0174297 0.00991663 0.0627298 0.0517047 0.040897 0.111259 0.0988034 0.0856934 0.175624 0.165871 0.155946 0.223409 0.215761 0.207753 0.26666 0.261985 0.256892 0.155946 0.145497 0.134557 0.207753 0.199037 0.189637 0.256892 0.251068 0.244551 0.26666 0.261985 0.256892 0.299532 0.298373 0.296804 0.31885 0.321322 0.32341 0.256892 0.251068 0.244551 0.296804 0.294602 0.291822 0.32341 0.324973 0.326069 0.134557 0.123106 0.111259 0.189637 0.179468 0.168562 0.244551 0.23726 0.229237 0.111259 0.0988034 0.0856934 0.168562 0.156757 0.143926 0.229237 0.220438 0.211136 0.244551 0.23726 0.229237 0.291822 0.288452 0.284589 0.326069 0.326756 0.327175 0.229237 0.220438 0.211136 0.284589 0.280368 0.27584 0.327175 0.327611 0.328588 0.323938 0.324994 0.325833 0.299277 0.297068 0.294604 0.26204 0.256658 0.251007 0.325833 0.326329 0.326547 0.294604 0.291667 0.288322 0.251007 0.244779 0.238021 0.26204 0.256658 0.251007 0.215728 0.207711 0.199479 0.166448 0.156617 0.146751 0.251007 0.244779 0.238021 0.199479 0.190694 0.18138 0.146751 0.136506 0.125911 0.326547 0.326549 0.326485 0.288322 0.284563 0.280495 0.238021 0.230655 0.222724 0.326485 0.326648 0.327596 0.280495 0.276247 0.271864 0.222724 0.214168 0.205246 0.238021 0.230655 0.222724 0.18138 0.171457 0.160954 0.125911 0.114951 0.103738 0.222724 0.214168 0.205246 0.160954 0.149697 0.137546 0.103738 0.0920522 0.0798323 0.166448 0.156617 0.146751 0.119929 0.109205 0.0986521 0.0823747 0.0713653 0.0607477 0.146751 0.136506 0.125911 0.0986521 0.0880053 0.0773036 0.0607477 0.0503132 0.0401252 0.0823747 0.0713653 0.0607477 0.0585465 0.0475842 0.0371406 0.0515918 0.0407131 0.030386 0.0607477 0.0503132 0.0401252 0.0371406 0.0270666 0.0174398 0.030386 0.0204725 0.0110519 0.125911 0.114951 0.103738 0.0773036 0.0666334 0.056242 0.0401252 0.0303552 0.0214108 0.103738 0.0920522 0.0798323 0.056242 0.0460291 0.0361385 0.0214108 0.013325 0.00655359 0.0401252 0.0303552 0.0214108 0.0174398 0.00848471 0.000712322 0.0110519 0.00235043 -0.00508097 0.0214108 0.013325 0.00655359 0.000712322 -0.00574083 -0.0101902 -0.00508097 -0.0110949 -0.0149383 0 0 0 0.0762638 0.0803903 0.084697 0.148051 0.155034 0.162182 0 0 0 0.084697 0.0891587 0.0938097 0.162182 0.169413 0.176671 0.148051 0.155034 0.162182 0.211815 0.220226 0.228634 0.264158 0.272752 0.281176 0.162182 0.169413 0.176671 0.228634 0.236876 0.244858 0.281176 0.289235 0.296843 0 0 0 0.0938097 0.0984888 0.103169 0.176671 0.183722 0.190459 0 0 0 0.103169 0.107652 0.111871 0.190459 0.196579 0.201929 0.176671 0.183722 0.190459 0.244858 0.252295 0.25909 0.296843 0.303741 0.309869 0.190459 0.196579 0.201929 0.25909 0.264915 0.269684 0.309869 0.314936 0.318891 0.264158 0.272752 0.281176 0.302851 0.310696 0.318322 0.326575 0.333055 0.339376 0.281176 0.289235 0.296843 0.318322 0.325568 0.332406 0.339376 0.345443 0.351297 0.326575 0.333055 0.339376 0.334072 0.338439 0.342701 0.323938 0.324994 0.325833 0.339376 0.345443 0.351297 0.342701 0.34679 0.350775 0.325833 0.326329 0.326547 0.296843 0.303741 0.309869 0.332406 0.338651 0.344304 0.351297 0.356857 0.362196 0.309869 0.314936 0.318891 0.344304 0.349221 0.353386 0.362196 0.367364 0.372511 0.351297 0.356857 0.362196 0.350775 0.354681 0.358617 0.326547 0.326549 0.326485 0.362196 0.367364 0.372511 0.358617 0.36272 0.367063 0.326485 0.326648 0.327596 0 0 0 0.111871 0.113431 0.114384 0.201929 0.202879 0.20282 0 0 0 0.114384 0.114593 0.113935 0.20282 0.201563 0.199018 0.201929 0.202879 0.20282 0.269684 0.269431 0.268003 0.318891 0.317996 0.315936 0.20282 0.201563 0.199018 0.268003 0.265212 0.260991 0.315936 0.312429 0.307424 0 0 0 0.113935 0.112381 0.109787 0.199018 0.195126 0.18982 0 0 0 0.109787 0.106306 0.101817 0.18982 0.183258 0.175451 0.199018 0.195126 0.18982 0.260991 0.255269 0.247998 0.307424 0.300762 0.29242 0.18982 0.183258 0.175451 0.247998 0.239349 0.229287 0.29242 0.28255 0.271188 0.318891 0.317996 0.315936 0.353386 0.353334 0.352141 0.372511 0.374989 0.376552 0.315936 0.312429 0.307424 0.352141 0.349367 0.344959 0.376552 0.376424 0.374462 0.372511 0.374989 0.376552 0.367063 0.373722 0.380227 0.327596 0.337834 0.349937 0.376552 0.376424 0.374462 0.380227 0.3857 0.389804 0.349937 0.36289 0.37648 0.307424 0.300762 0.29242 0.344959 0.33851 0.330009 0.374462 0.369838 0.362498 0.29242 0.28255 0.271188 0.330009 0.319565 0.307178 0.362498 0.352405 0.339657 0.374462 0.369838 0.362498 0.389804 0.390774 0.388345 0.37648 0.388118 0.396579 0.362498 0.352405 0.339657 0.388345 0.38119 0.369614 0.396579 0.398156 0.392293 0.269722 0.260706 0.254632 0.269855 0.264601 0.261418 0.265904 0.26499 0.265323 0.254632 0.249394 0.245759 0.261418 0.258669 0.257136 0.265323 0.265405 0.266157 0.265904 0.26499 0.265323 0.25788 0.262083 0.26656 0.246708 0.257049 0.265819 0.265323 0.265405 0.266157 0.26656 0.269843 0.272962 0.265819 0.272421 0.277825 0.245759 0.242462 0.239816 0.257136 0.255515 0.254153 0.266157 0.26632 0.266278 0.239816 0.237472 0.235574 0.254153 0.252746 0.251413 0.266278 0.265801 0.265021 0.266157 0.26632 0.266278 0.272962 0.274982 0.27625 0.277825 0.281626 0.284115 0.266278 0.265801 0.265021 0.27625 0.276694 0.276398 0.284115 0.285403 0.285544 0.246708 0.257049 0.265819 0.234832 0.251144 0.263981 0.224429 0.245785 0.261885 0.265819 0.272421 0.277825 0.263981 0.273696 0.28108 0.261885 0.274089 0.282984 0.224429 0.245785 0.261885 0.218431 0.242804 0.260664 0.217873 0.242321 0.260412 0.261885 0.274089 0.282984 0.260664 0.27425 0.283948 0.260412 0.274185 0.283949 0.277825 0.281626 0.284115 0.28108 0.286444 0.289967 0.282984 0.28955 0.293854 0.284115 0.285403 0.285544 0.289967 0.291967 0.29246 0.293854 0.296401 0.297145 0.282984 0.28955 0.293854 0.283948 0.291154 0.295879 0.283949 0.291253 0.296033 0.293854 0.296401 0.297145 0.295879 0.298705 0.299598 0.296033 0.298921 0.299822 0 0 0 0.101817 0.0985349 0.0943405 0.175451 0.16937 0.162185 0 0 0 0.0943405 0.089613 0.0843993 0.162185 0.154353 0.146024 0.175451 0.16937 0.162185 0.229287 0.221333 0.212231 0.271188 0.262016 0.251632 0.162185 0.154353 0.146024 0.212231 0.20255 0.192409 0.251632 0.240707 0.229358 0 0 0 0.0843993 0.079049 0.0736909 0.146024 0.137646 0.129402 0 0 0 0.0736909 0.0685355 0.0637333 0.129402 0.121584 0.114356 0.146024 0.137646 0.129402 0.192409 0.182395 0.172663 0.229358 0.218324 0.207733 0.129402 0.121584 0.114356 0.172663 0.163571 0.155274 0.207733 0.197998 0.189262 0.271188 0.262016 0.251632 0.307178 0.297147 0.285683 0.339657 0.328934 0.316141 0.251632 0.240707 0.229358 0.285683 0.27359 0.261001 0.316141 0.302464 0.288097 0.339657 0.328934 0.316141 0.369614 0.358462 0.344117 0.392293 0.382301 0.366756 0.316141 0.302464 0.288097 0.344117 0.32825 0.311092 0.366756 0.348168 0.327259 0.229358 0.218324 0.207733 0.261001 0.248948 0.237521 0.288097 0.274582 0.261973 0.207733 0.197998 0.189262 0.237521 0.227228 0.218112 0.261973 0.251013 0.24164 0.288097 0.274582 0.261973 0.311092 0.295369 0.280856 0.327259 0.308624 0.291978 0.261973 0.251013 0.24164 0.280856 0.268851 0.259165 0.291978 0.27932 0.269722 0 0 0 0.0637333 0.0581617 0.0533186 0.114356 0.105767 0.0982279 0 0 0 0.0533186 0.0491399 0.0457165 0.0982279 0.0917266 0.0863487 0.114356 0.105767 0.0982279 0.155274 0.145125 0.136254 0.189262 0.178388 0.168956 0.0982279 0.0917266 0.0863487 0.136254 0.128596 0.122258 0.168956 0.160843 0.154156 0 0 0 0.0457165 0.0429568 0.0409547 0.0863487 0.0820004 0.0787209 0 0 0 0.0409547 0.0395799 0.0388943 0.0787209 0.0764107 0.0750892 0.0863487 0.0820004 0.0787209 0.122258 0.117085 0.113127 0.154156 0.148663 0.144421 0.0787209 0.0764107 0.0750892 0.113127 0.110278 0.108585 0.144421 0.141307 0.139381 0.189262 0.178388 0.168956 0.218112 0.206808 0.197242 0.24164 0.230416 0.221201 0.168956 0.160843 0.154156 0.197242 0.189064 0.182436 0.221201 0.213402 0.207234 0.24164 0.230416 0.221201 0.259165 0.248531 0.240387 0.269722 0.260706 0.254632 0.221201 0.213402 0.207234 0.240387 0.233503 0.228325 0.254632 0.249394 0.245759 0.154156 0.148663 0.144421 0.182436 0.176957 0.172718 0.207234 0.202085 0.198092 0.144421 0.141307 0.139381 0.172718 0.169538 0.167478 0.198092 0.194992 0.192876 0.207234 0.202085 0.198092 0.228325 0.223895 0.22044 0.245759 0.242462 0.239816 0.198092 0.194992 0.192876 0.22044 0.217635 0.215575 0.239816 0.237472 0.235574 0.267261 0.272374 0.277934 0.254487 0.260499 0.267248 0.233171 0.239378 0.246544 0.277934 0.284047 0.290521 0.267248 0.274863 0.283224 0.246544 0.254823 0.264181 0.233171 0.239378 0.246544 0.204439 0.210188 0.217017 0.169771 0.174532 0.180378 0.246544 0.254823 0.264181 0.217017 0.225101 0.234496 0.180378 0.187477 0.195972 0.290521 0.297322 0.304196 0.283224 0.29232 0.301936 0.264181 0.274655 0.286083 0.304196 0.311489 0.31885 0.301936 0.312162 0.322676 0.286083 0.29832 0.311052 0.264181 0.274655 0.286083 0.234496 0.245317 0.25749 0.195972 0.20606 0.217798 0.286083 0.29832 0.311052 0.25749 0.270741 0.284832 0.217798 0.230892 0.245229 0.169771 0.174532 0.180378 0.130788 0.134246 0.138664 0.0888793 0.0909578 0.0937592 0.180378 0.187477 0.195972 0.138664 0.144184 0.150992 0.0937592 0.0973749 0.101981 0.0888793 0.0909578 0.0937592 0.0450961 0.0459531 0.0472183 0 0 0 0.0937592 0.0973749 0.101981 0.0472183 0.0489091 0.0511531 0 0 0 0.195972 0.20606 0.217798 0.150992 0.159338 0.169411 0.101981 0.107811 0.115153 0.217798 0.230892 0.245229 0.169411 0.180951 0.194061 0.115153 0.12377 0.133931 0.101981 0.107811 0.115153 0.0511531 0.0540596 0.0579466 0 0 0 0.115153 0.12377 0.133931 0.0579466 0.0625616 0.0682239 0 0 0 0.234691 0.236797 0.239223 0.219049 0.221335 0.223932 0.199013 0.20122 0.203689 0.239223 0.242176 0.245642 0.223932 0.227062 0.230719 0.203689 0.206638 0.210058 0.199013 0.20122 0.203689 0.174776 0.176718 0.178846 0.146625 0.148192 0.149859 0.203689 0.206638 0.210058 0.178846 0.181359 0.184242 0.149859 0.1518 0.15398 0.245642 0.249765 0.254579 0.230719 0.235107 0.240286 0.210058 0.214195 0.219115 0.254579 0.260452 0.267261 0.240286 0.246761 0.254487 0.219115 0.225432 0.233171 0.210058 0.214195 0.219115 0.184242 0.187744 0.19193 0.15398 0.156634 0.159796 0.219115 0.225432 0.233171 0.19193 0.197469 0.204439 0.159796 0.164141 0.169771 0.146625 0.148192 0.149859 0.114857 0.116007 0.117179 0.0797199 0.0804582 0.0811635 0.149859 0.1518 0.15398 0.117179 0.118519 0.119973 0.0811635 0.0819563 0.08276 0.0797199 0.0804582 0.0811635 0.0413986 0.0417556 0.0420595 0 0 0 0.0811635 0.0819563 0.08276 0.0420595 0.0424055 0.0427062 0 0 0 0.15398 0.156634 0.159796 0.119973 0.121737 0.123798 0.08276 0.0837371 0.0848084 0.159796 0.164141 0.169771 0.123798 0.126782 0.130788 0.0848084 0.0864976 0.0888793 0.08276 0.0837371 0.0848084 0.0427062 0.043092 0.0434377 0 0 0 0.0848084 0.0864976 0.0888793 0.0434377 0.0440917 0.0450961 0 0 0 0.253149 0.248221 0.242648 0.253089 0.248519 0.243361 0.254275 0.250491 0.246239 0.242648 0.236231 0.228874 0.243361 0.237437 0.230653 0.246239 0.241383 0.235837 0.254275 0.250491 0.246239 0.255938 0.253247 0.250249 0.257028 0.255578 0.254 0.246239 0.241383 0.235837 0.250249 0.246869 0.243032 0.254 0.252289 0.25038 0.228874 0.220133 0.209888 0.230653 0.222586 0.213118 0.235837 0.229226 0.221441 0.209888 0.19767 0.183078 0.213118 0.201795 0.188215 0.221441 0.212075 0.200735 0.235837 0.229226 0.221441 0.243032 0.238428 0.232968 0.25038 0.24805 0.245231 0.221441 0.212075 0.200735 0.232968 0.226319 0.21811 0.245231 0.241691 0.237091 0.257028 0.255578 0.254 0.256389 0.25616 0.255971 0.25297 0.253799 0.254809 0.254 0.252289 0.25038 0.255971 0.255889 0.255861 0.254809 0.256128 0.257717 0.25297 0.253799 0.254809 0.245915 0.247537 0.249436 0.234691 0.236797 0.239223 0.254809 0.256128 0.257717 0.249436 0.251787 0.254565 0.239223 0.242176 0.245642 0.25038 0.24805 0.245231 0.255861 0.255758 0.255533 0.257717 0.259544 0.261589 0.245231 0.241691 0.237091 0.255533 0.255085 0.254111 0.261589 0.2639 0.266223 0.257717 0.259544 0.261589 0.254565 0.25783 0.261591 0.245642 0.249765 0.254579 0.261589 0.2639 0.266223 0.261591 0.266056 0.27103 0.254579 0.260452 0.267261 0.183078 0.171739 0.158894 0.188215 0.177605 0.165531 0.200735 0.191766 0.181457 0.158894 0.144719 0.128775 0.165531 0.152149 0.137015 0.181457 0.169938 0.156757 0.200735 0.191766 0.181457 0.21811 0.211456 0.203663 0.237091 0.233142 0.228317 0.181457 0.169938 0.156757 0.203663 0.194829 0.184513 0.228317 0.222694 0.215855 0.128775 0.111383 0.0920087 0.137015 0.120407 0.10177 0.156757 0.14211 0.125424 0.0920087 0.0720991 0.0515918 0.10177 0.0825048 0.0624702 0.125424 0.107987 0.0894826 0.156757 0.14211 0.125424 0.184513 0.17281 0.15915 0.215855 0.207817 0.198042 0.125424 0.107987 0.0894826 0.15915 0.144674 0.128873 0.198042 0.187514 0.175624 0.237091 0.233142 0.228317 0.254111 0.252925 0.251172 0.266223 0.267613 0.268773 0.228317 0.222694 0.215855 0.251172 0.248923 0.245802 0.268773 0.269783 0.270321 0.266223 0.267613 0.268773 0.27103 0.274566 0.278219 0.267261 0.272374 0.277934 0.268773 0.269783 0.270321 0.278219 0.282077 0.28588 0.277934 0.284047 0.290521 0.215855 0.207817 0.198042 0.245802 0.241779 0.236386 0.270321 0.270342 0.269463 0.198042 0.187514 0.175624 0.236386 0.230479 0.223409 0.269463 0.26841 0.26666 0.270321 0.270342 0.269463 0.28588 0.289588 0.292893 0.290521 0.297322 0.304196 0.269463 0.26841 0.26666 0.292893 0.2963