# vtk DataFile Version 3.0
#This file was generated by the deal.II library on 2024/9/17 at 11:47:00
ASCII
DATASET UNSTRUCTURED_GRID

POINTS 5760 double
0.11 0.11 0
0.09625 0.10875 0
0.0825 0.1075 0
0.10875 0.09625 0
0.0951562 0.0951563 0
0.0815625 0.0940625 0
0.1075 0.0825 0
0.0940625 0.0815625 0
0.080625 0.080625 0
0.0825 0.1075 0
0.06875 0.10625 0
0.055 0.105 0
0.0815625 0.0940625 0
0.0679688 0.0929688 0
0.054375 0.091875 0
0.080625 0.080625 0
0.0671875 0.0796875 0
0.05375 0.07875 0
0.1075 0.0825 0
0.0940625 0.0815625 0
0.080625 0.080625 0
0.10625 0.06875 0
0.0929688 0.0679688 0
0.0796875 0.0671875 0
0.105 0.055 0
0.091875 0.054375 0
0.07875 0.05375 0
0.080625 0.080625 0
0.0671875 0.0796875 0
0.05375 0.07875 0
0.0796875 0.0671875 0
0.0664063 0.0664062 0
0.053125 0.065625 0
0.07875 0.05375 0
0.065625 0.053125 0
0.0525 0.0525 0
0.055 0.105 0
0.04125 0.10375 0
0.0275 0.1025 0
0.054375 0.091875 0
0.0407813 0.0907813 0
0.0271875 0.0896875 0
0.05375 0.07875 0
0.0403125 0.0778125 0
0.026875 0.076875 0
0.0275 0.1025 0
0.01375 0.10125 0
0 0.1 0
0.0271875 0.0896875 0
0.0135938 0.0885938 0
0 0.0875 0
0.026875 0.076875 0
0.0134375 0.0759375 0
0 0.075 0
0.05375 0.07875 0
0.0403125 0.0778125 0
0.026875 0.076875 0
0.053125 0.065625 0
0.0398438 0.0648438 0
0.0265625 0.0640625 0
0.0525 0.0525 0
0.039375 0.051875 0
0.02625 0.05125 0
0.026875 0.076875 0
0.0134375 0.0759375 0
0 0.075 0
0.0265625 0.0640625 0
0.0132813 0.0632813 0
0 0.0625 0
0.02625 0.05125 0
0.013125 0.050625 0
0 0.05 0
0.105 0.055 0
0.091875 0.054375 0
0.07875 0.05375 0
0.10375 0.04125 0
0.0907813 0.0407813 0
0.0778125 0.0403125 0
0.1025 0.0275 0
0.0896875 0.0271875 0
0.076875 0.026875 0
0.07875 0.05375 0
0.065625 0.053125 0
0.0525 0.0525 0
0.0778125 0.0403125 0
0.0648438 0.0398438 0
0.051875 0.039375 0
0.076875 0.026875 0
0.0640625 0.0265625 0
0.05125 0.02625 0
0.1025 0.0275 0
0.0896875 0.0271875 0
0.076875 0.026875 0
0.10125 0.01375 0
0.0885937 0.0135938 0
0.0759375 0.0134375 0
0.1 0 0
0.0875 0 0
0.075 0 0
0.076875 0.026875 0
0.0640625 0.0265625 0
0.05125 0.02625 0
0.0759375 0.0134375 0
0.0632812 0.0132813 0
0.050625 0.013125 0
0.075 0 0
0.0625 0 0
0.05 0 0
0.0525 0.0525 0
0.039375 0.051875 0
0.02625 0.05125 0
0.051875 0.039375 0
0.0389063 0.0389063 0
0.0259375 0.0384375 0
0.05125 0.02625 0
0.0384375 0.0259375 0
0.025625 0.025625 0
0.02625 0.05125 0
0.013125 0.050625 0
0 0.05 0
0.0259375 0.0384375 0
0.0129688 0.0379688 0
0 0.0375 0
0.025625 0.025625 0
0.0128125 0.0253125 0
0 0.025 0
0.05125 0.02625 0
0.0384375 0.0259375 0
0.025625 0.025625 0
0.050625 0.013125 0
0.0379688 0.0129688 0
0.0253125 0.0128125 0
0.05 0 0
0.0375 0 0
0.025 0 0
0.025625 0.025625 0
0.0128125 0.0253125 0
0 0.025 0
0.0253125 0.0128125 0
0.0126563 0.0126563 0
0 0.0125 0
0.025 0 0
0.0125 0 0
0 0 0
0.2 0.1 0
0.18875 0.10125 0
0.1775 0.1025 0
0.2 0.0875 0
0.188594 0.0885938 0
0.177187 0.0896875 0
0.2 0.075 0
0.188438 0.0759375 0
0.176875 0.076875 0
0.1775 0.1025 0
0.16625 0.10375 0
0.155 0.105 0
0.177187 0.0896875 0
0.165781 0.0907813 0
0.154375 0.091875 0
0.176875 0.076875 0
0.165313 0.0778125 0
0.15375 0.07875 0
0.2 0.075 0
0.188438 0.0759375 0
0.176875 0.076875 0
0.2 0.0625 0
0.188281 0.0632813 0
0.176563 0.0640625 0
0.2 0.05 0
0.188125 0.050625 0
0.17625 0.05125 0
0.176875 0.076875 0
0.165313 0.0778125 0
0.15375 0.07875 0
0.176563 0.0640625 0
0.164844 0.0648438 0
0.153125 0.065625 0
0.17625 0.05125 0
0.164375 0.051875 0
0.1525 0.0525 0
0.155 0.105 0
0.14375 0.10625 0
0.1325 0.1075 0
0.154375 0.091875 0
0.142969 0.0929688 0
0.131562 0.0940625 0
0.15375 0.07875 0
0.142187 0.0796875 0
0.130625 0.080625 0
0.1325 0.1075 0
0.12125 0.10875 0
0.11 0.11 0
0.131562 0.0940625 0
0.120156 0.0951563 0
0.10875 0.09625 0
0.130625 0.080625 0
0.119063 0.0815625 0
0.1075 0.0825 0
0.15375 0.07875 0
0.142187 0.0796875 0
0.130625 0.080625 0
0.153125 0.065625 0
0.141406 0.0664062 0
0.129688 0.0671875 0
0.1525 0.0525 0
0.140625 0.053125 0
0.12875 0.05375 0
0.130625 0.080625 0
0.119063 0.0815625 0
0.1075 0.0825 0
0.129688 0.0671875 0
0.117969 0.0679688 0
0.10625 0.06875 0
0.12875 0.05375 0
0.116875 0.054375 0
0.105 0.055 0
0.2 0.05 0
0.188125 0.050625 0
0.17625 0.05125 0
0.2 0.0375 0
0.187969 0.0379688 0
0.175938 0.0384375 0
0.2 0.025 0
0.187813 0.0253125 0
0.175625 0.025625 0
0.17625 0.05125 0
0.164375 0.051875 0
0.1525 0.0525 0
0.175938 0.0384375 0
0.163906 0.0389063 0
0.151875 0.039375 0
0.175625 0.025625 0
0.163438 0.0259375 0
0.15125 0.02625 0
0.2 0.025 0
0.187813 0.0253125 0
0.175625 0.025625 0
0.2 0.0125 0
0.187656 0.0126563 0
0.175313 0.0128125 0
0.2 0 0
0.1875 0 0
0.175 0 0
0.175625 0.025625 0
0.163438 0.0259375 0
0.15125 0.02625 0
0.175313 0.0128125 0
0.162969 0.0129688 0
0.150625 0.013125 0
0.175 0 0
0.1625 0 0
0.15 0 0
0.1525 0.0525 0
0.140625 0.053125 0
0.12875 0.05375 0
0.151875 0.039375 0
0.139844 0.0398438 0
0.127813 0.0403125 0
0.15125 0.02625 0
0.139063 0.0265625 0
0.126875 0.026875 0
0.12875 0.05375 0
0.116875 0.054375 0
0.105 0.055 0
0.127813 0.0403125 0
0.115781 0.0407813 0
0.10375 0.04125 0
0.126875 0.026875 0
0.114688 0.0271875 0
0.1025 0.0275 0
0.15125 0.02625 0
0.139063 0.0265625 0
0.126875 0.026875 0
0.150625 0.013125 0
0.138281 0.0132813 0
0.125938 0.0134375 0
0.15 0 0
0.1375 0 0
0.125 0 0
0.126875 0.026875 0
0.114688 0.0271875 0
0.1025 0.0275 0
0.125938 0.0134375 0
0.113594 0.0135938 0
0.10125 0.01375 0
0.125 0 0
0.1125 0 0
0.1 0 0
0.1 0.2 0
0.0875 0.2 0
0.075 0.2 0
0.10125 0.18875 0
0.0885937 0.188594 0
0.0759375 0.188438 0
0.1025 0.1775 0
0.0896875 0.177187 0
0.076875 0.176875 0
0.075 0.2 0
0.0625 0.2 0
0.05 0.2 0
0.0759375 0.188438 0
0.0632813 0.188281 0
0.050625 0.188125 0
0.076875 0.176875 0
0.0640625 0.176563 0
0.05125 0.17625 0
0.1025 0.1775 0
0.0896875 0.177187 0
0.076875 0.176875 0
0.10375 0.16625 0
0.0907813 0.165781 0
0.0778125 0.165313 0
0.105 0.155 0
0.091875 0.154375 0
0.07875 0.15375 0
0.076875 0.176875 0
0.0640625 0.176563 0
0.05125 0.17625 0
0.0778125 0.165313 0
0.0648438 0.164844 0
0.051875 0.164375 0
0.07875 0.15375 0
0.065625 0.153125 0
0.0525 0.1525 0
0.05 0.2 0
0.0375 0.2 0
0.025 0.2 0
0.050625 0.188125 0
0.0379688 0.187969 0
0.0253125 0.187813 0
0.05125 0.17625 0
0.0384375 0.175938 0
0.025625 0.175625 0
0.025 0.2 0
0.0125 0.2 0
0 0.2 0
0.0253125 0.187813 0
0.0126563 0.187656 0
0 0.1875 0
0.025625 0.175625 0
0.0128125 0.175313 0
0 0.175 0
0.05125 0.17625 0
0.0384375 0.175938 0
0.025625 0.175625 0
0.051875 0.164375 0
0.0389063 0.163906 0
0.0259375 0.163438 0
0.0525 0.1525 0
0.039375 0.151875 0
0.02625 0.15125 0
0.025625 0.175625 0
0.0128125 0.175313 0
0 0.175 0
0.0259375 0.163438 0
0.0129688 0.162969 0
0 0.1625 0
0.02625 0.15125 0
0.013125 0.150625 0
0 0.15 0
0.105 0.155 0
0.091875 0.154375 0
0.07875 0.15375 0
0.10625 0.14375 0
0.0929688 0.142969 0
0.0796875 0.142187 0
0.1075 0.1325 0
0.0940625 0.131562 0
0.080625 0.130625 0
0.07875 0.15375 0
0.065625 0.153125 0
0.0525 0.1525 0
0.0796875 0.142187 0
0.0664063 0.141406 0
0.053125 0.140625 0
0.080625 0.130625 0
0.0671875 0.129688 0
0.05375 0.12875 0
0.1075 0.1325 0
0.0940625 0.131562 0
0.080625 0.130625 0
0.10875 0.12125 0
0.0951563 0.120156 0
0.0815625 0.119063 0
0.11 0.11 0
0.09625 0.10875 0
0.0825 0.1075 0
0.080625 0.130625 0
0.0671875 0.129688 0
0.05375 0.12875 0
0.0815625 0.119063 0
0.0679688 0.117969 0
0.054375 0.116875 0
0.0825 0.1075 0
0.06875 0.10625 0
0.055 0.105 0
0.0525 0.1525 0
0.039375 0.151875 0
0.02625 0.15125 0
0.053125 0.140625 0
0.0398438 0.139844 0
0.0265625 0.139063 0
0.05375 0.12875 0
0.0403125 0.127813 0
0.026875 0.126875 0
0.02625 0.15125 0
0.013125 0.150625 0
0 0.15 0
0.0265625 0.139063 0
0.0132813 0.138281 0
0 0.1375 0
0.026875 0.126875 0
0.0134375 0.125938 0
0 0.125 0
0.05375 0.12875 0
0.0403125 0.127813 0
0.026875 0.126875 0
0.054375 0.116875 0
0.0407813 0.115781 0
0.0271875 0.114688 0
0.055 0.105 0
0.04125 0.10375 0
0.0275 0.1025 0
0.026875 0.126875 0
0.0134375 0.125938 0
0 0.125 0
0.0271875 0.114688 0
0.0135938 0.113594 0
0 0.1125 0
0.0275 0.1025 0
0.01375 0.10125 0
0 0.1 0
0.29 0.11 0
0.27875 0.10875 0
0.2675 0.1075 0
0.29125 0.09625 0
0.279844 0.0951563 0
0.268437 0.0940625 0
0.2925 0.0825 0
0.280938 0.0815625 0
0.269375 0.080625 0
0.2675 0.1075 0
0.25625 0.10625 0
0.245 0.105 0
0.268437 0.0940625 0
0.257031 0.0929688 0
0.245625 0.091875 0
0.269375 0.080625 0
0.257812 0.0796875 0
0.24625 0.07875 0
0.2925 0.0825 0
0.280938 0.0815625 0
0.269375 0.080625 0
0.29375 0.06875 0
0.282031 0.0679688 0
0.270313 0.0671875 0
0.295 0.055 0
0.283125 0.054375 0
0.27125 0.05375 0
0.269375 0.080625 0
0.257812 0.0796875 0
0.24625 0.07875 0
0.270313 0.0671875 0
0.258594 0.0664062 0
0.246875 0.065625 0
0.27125 0.05375 0
0.259375 0.053125 0
0.2475 0.0525 0
0.245 0.105 0
0.23375 0.10375 0
0.2225 0.1025 0
0.245625 0.091875 0
0.234219 0.0907813 0
0.222813 0.0896875 0
0.24625 0.07875 0
0.234687 0.0778125 0
0.223125 0.076875 0
0.2225 0.1025 0
0.21125 0.10125 0
0.2 0.1 0
0.222813 0.0896875 0
0.211406 0.0885937 0
0.2 0.0875 0
0.223125 0.076875 0
0.211563 0.0759375 0
0.2 0.075 0
0.24625 0.07875 0
0.234687 0.0778125 0
0.223125 0.076875 0
0.246875 0.065625 0
0.235156 0.0648438 0
0.223438 0.0640625 0
0.2475 0.0525 0
0.235625 0.051875 0
0.22375 0.05125 0
0.223125 0.076875 0
0.211563 0.0759375 0
0.2 0.075 0
0.223438 0.0640625 0
0.211719 0.0632813 0
0.2 0.0625 0
0.22375 0.05125 0
0.211875 0.050625 0
0.2 0.05 0
0.295 0.055 0
0.283125 0.054375 0
0.27125 0.05375 0
0.29625 0.04125 0
0.284219 0.0407813 0
0.272188 0.0403125 0
0.2975 0.0275 0
0.285312 0.0271875 0
0.273125 0.026875 0
0.27125 0.05375 0
0.259375 0.053125 0
0.2475 0.0525 0
0.272188 0.0403125 0
0.260156 0.0398438 0
0.248125 0.039375 0
0.273125 0.026875 0
0.260937 0.0265625 0
0.24875 0.02625 0
0.2975 0.0275 0
0.285312 0.0271875 0
0.273125 0.026875 0
0.29875 0.01375 0
0.286406 0.0135938 0
0.274062 0.0134375 0
0.3 0 0
0.2875 0 0
0.275 0 0
0.273125 0.026875 0
0.260937 0.0265625 0
0.24875 0.02625 0
0.274062 0.0134375 0
0.261719 0.0132813 0
0.249375 0.013125 0
0.275 0 0
0.2625 0 0
0.25 0 0
0.2475 0.0525 0
0.235625 0.051875 0
0.22375 0.05125 0
0.248125 0.039375 0
[...]
POINT_DATA 5760
SCALARS x_velo double 1
LOOKUP_TABLE default
0.259827 0.249939 0.24309 0.248518 0.237159 0.228401 0.231185 0.219243 0.209468 0.24309 0.237178 0.23294 0.228401 0.220977 0.21533 0.209468 0.201185 0.194626 0.231185 0.219243 0.209468 0.208578 0.196552 0.186421 0.181093 0.169499 0.159506 0.209468 0.201185 0.194626 0.186421 0.177774 0.170784 0.159506 0.150941 0.14392 0.23294 0.22915 0.226087 0.21533 0.210512 0.206729 0.194626 0.189154 0.184901 0.226087 0.223425 0.221297 0.206729 0.203676 0.201443 0.184901 0.181607 0.179358 0.194626 0.189154 0.184901 0.170784 0.165013 0.160551 0.14392 0.13817 0.133743 0.184901 0.181607 0.179358 0.160551 0.157206 0.155042 0.133743 0.130496 0.128495 0.181093 0.169499 0.159506 0.148638 0.13785 0.12849 0.109402 0.100341 0.0924607 0.159506 0.150941 0.14392 0.12849 0.120451 0.113847 0.0924607 0.0857089 0.0801703 0.109402 0.100341 0.0924607 0.0607997 0.0550061 0.050025 0 0 0 0.0924607 0.0857089 0.0801703 0.050025 0.0457562 0.0422949 0 0 0 0.14392 0.13817 0.133743 0.113847 0.108478 0.104393 0.0801703 0.075715 0.0723811 0.133743 0.130496 0.128495 0.104393 0.101457 0.0997174 0.0723811 0.0700413 0.0687091 0.0801703 0.075715 0.0723811 0.0422949 0.0395175 0.0375191 0 0 0 0.0723811 0.0700413 0.0687091 0.0375191 0.0361492 0.03547 0 0 0 0.386494 0.376162 0.360189 0.364526 0.352963 0.337934 0.335978 0.324685 0.311043 0.360189 0.341104 0.319624 0.337934 0.321253 0.303195 0.311043 0.296395 0.280952 0.335978 0.324685 0.311043 0.304716 0.294087 0.281748 0.269662 0.259979 0.248817 0.311043 0.296395 0.280952 0.281748 0.26866 0.254975 0.248817 0.236987 0.224629 0.319624 0.300357 0.283103 0.303195 0.286614 0.271343 0.280952 0.266432 0.252909 0.283103 0.269887 0.259827 0.271343 0.258701 0.248518 0.252909 0.241175 0.231185 0.280952 0.266432 0.252909 0.254975 0.241881 0.229492 0.224629 0.212611 0.201089 0.252909 0.241175 0.231185 0.229492 0.218369 0.208578 0.201089 0.190529 0.181093 0.269662 0.259979 0.248817 0.228099 0.21984 0.210161 0.174156 0.168004 0.160498 0.248817 0.236987 0.224629 0.210161 0.199762 0.188784 0.160498 0.152204 0.143289 0.174156 0.168004 0.160498 0.100551 0.0973344 0.0930295 0 0 0 0.160498 0.152204 0.143289 0.0930295 0.0881024 0.0825958 0 0 0 0.224629 0.212611 0.201089 0.188784 0.177929 0.167385 0.143289 0.134301 0.125457 0.201089 0.190529 0.181093 0.167385 0.15756 0.148638 0.125457 0.117093 0.109402 0.143289 0.134301 0.125457 0.0825958 0.0769329 0.071264 0 0 0 0.125457 0.117093 0.109402 0.071264 0.0658274 0.0607997 0 0 0 0.217873 0.242321 0.260412 0.217315 0.241528 0.259262 0.22219 0.243237 0.259084 0.260412 0.274185 0.283949 0.259262 0.272743 0.282358 0.259084 0.271077 0.279804 0.22219 0.243237 0.259084 0.231444 0.247298 0.259768 0.242119 0.251884 0.26018 0.259084 0.271077 0.279804 0.259768 0.269174 0.276307 0.26018 0.266384 0.271455 0.283949 0.291253 0.296033 0.282358 0.289494 0.294165 0.279804 0.286231 0.290426 0.296033 0.298921 0.299822 0.294165 0.296949 0.297814 0.290426 0.292889 0.293575 0.279804 0.286231 0.290426 0.276307 0.281465 0.284824 0.271455 0.274986 0.277257 0.290426 0.292889 0.293575 0.284824 0.286699 0.287106 0.277257 0.278379 0.278406 0.242119 0.251884 0.26018 0.252031 0.255562 0.259471 0.258743 0.257075 0.256764 0.26018 0.266384 0.271455 0.259471 0.262277 0.264987 0.256764 0.256297 0.25657 0.258743 0.257075 0.256764 0.261349 0.255266 0.251372 0.259827 0.249939 0.24309 0.256764 0.256297 0.25657 0.251372 0.248006 0.245932 0.24309 0.237178 0.23294 0.271455 0.274986 0.277257 0.264987 0.266678 0.267674 0.25657 0.256347 0.255983 0.277257 0.278379 0.278406 0.267674 0.267914 0.267475 0.255983 0.255263 0.254313 0.25657 0.256347 0.255983 0.245932 0.243871 0.24214 0.23294 0.22915 0.226087 0.255983 0.255263 0.254313 0.24214 0.240454 0.23892 0.226087 0.223425 0.221297 0.328587 0.338063 0.349298 0.362119 0.368671 0.375138 0.366311 0.369358 0.371547 0.349298 0.361297 0.373902 0.375138 0.380648 0.384883 0.371547 0.372056 0.370711 0.366311 0.369358 0.371547 0.348115 0.348996 0.348691 0.314015 0.314276 0.313259 0.371547 0.372056 0.370711 0.348691 0.346677 0.342881 0.313259 0.310602 0.306242 0.373902 0.384585 0.392173 0.384883 0.386002 0.383685 0.370711 0.36654 0.359434 0.392173 0.393021 0.386494 0.383685 0.376455 0.364526 0.359434 0.349215 0.335978 0.370711 0.36654 0.359434 0.342881 0.336787 0.328366 0.306242 0.299943 0.291668 0.359434 0.349215 0.335978 0.328366 0.317676 0.304716 0.291668 0.281564 0.269662 0.314015 0.314276 0.313259 0.26411 0.265104 0.264824 0.195764 0.19783 0.198841 0.313259 0.310602 0.306242 0.264824 0.262997 0.259541 0.198841 0.198537 0.196798 0.195764 0.19783 0.198841 0.107116 0.109327 0.110946 0 0 0 0.198841 0.198537 0.196798 0.110946 0.111779 0.111686 0 0 0 0.306242 0.299943 0.291668 0.259541 0.254314 0.247254 0.196798 0.193503 0.188559 0.291668 0.281564 0.269662 0.247254 0.238531 0.228099 0.188559 0.182112 0.174156 0.196798 0.193503 0.188559 0.111686 0.110594 0.108324 0 0 0 0.188559 0.182112 0.174156 0.108324 0.105032 0.100551 0 0 0 0.31885 0.321322 0.323409 0.322678 0.328471 0.334013 0.311056 0.319133 0.326991 0.323409 0.324972 0.326068 0.334013 0.3392 0.344086 0.326991 0.334479 0.341611 0.311056 0.319133 0.326991 0.284837 0.294339 0.303686 0.245235 0.255267 0.265301 0.326991 0.334479 0.341611 0.303686 0.312663 0.321209 0.265301 0.275104 0.284559 0.326068 0.326755 0.327174 0.344086 0.348691 0.35313 0.341611 0.348282 0.354563 0.327174 0.327609 0.328587 0.35313 0.357574 0.362119 0.354563 0.360513 0.366311 0.341611 0.348282 0.354563 0.321209 0.329089 0.336286 0.284559 0.293349 0.30138 0.354563 0.360513 0.366311 0.336286 0.342631 0.348115 0.30138 0.308295 0.314015 0.245235 0.255267 0.265301 0.194067 0.20345 0.213036 0.133935 0.141357 0.14911 0.265301 0.275104 0.284559 0.213036 0.222643 0.232167 0.14911 0.157107 0.165303 0.133935 0.141357 0.14911 0.0682263 0.0724296 0.0769075 0 0 0 0.14911 0.157107 0.165303 0.0769075 0.0816238 0.0866288 0 0 0 0.284559 0.293349 0.30138 0.232167 0.241283 0.249866 0.165303 0.173451 0.181445 0.30138 0.308295 0.314015 0.249866 0.257516 0.26411 0.181445 0.18894 0.195764 0.165303 0.173451 0.181445 0.0866288 0.0917575 0.0970038 0 0 0 0.181445 0.18894 0.195764 0.0970038 0.102142 0.107116 0 0 0 0.0515887 0.0407106 0.0303841 0.0624668 0.0513774 0.0407668 0.0894784 0.0782834 0.0674023 0.0303841 0.0204711 0.011051 0.0407668 0.0304812 0.0206018 0.0674023 0.0566168 0.0459972 0.0894784 0.0782834 0.0674023 0.128868 0.118027 0.107244 0.175619 0.165866 0.155942 0.0674023 0.0566168 0.0459972 0.107244 0.0962451 0.0850756 0.155942 0.145494 0.134554 0.011051 0.00234983 -0.00508128 0.0206018 0.0113552 0.00325117 0.0459972 0.0357167 0.0261815 -0.00508128 -0.0110949 -0.0149382 0.00325117 -0.00357121 -0.0084299 0.0261815 0.0174291 0.0099162 0.0459972 0.0357167 0.0261815 0.0850756 0.0738212 0.0627281 0.134554 0.123103 0.111257 0.0261815 0.0174291 0.0099162 0.0627281 0.0517035 0.0408961 0.111257 0.0988016 0.0856919 0.175619 0.165866 0.155942 0.223404 0.215757 0.207749 0.266656 0.261982 0.256889 0.155942 0.145494 0.134554 0.207749 0.199033 0.189634 0.256889 0.251064 0.244548 0.266656 0.261982 0.256889 0.299531 0.298371 0.296802 0.31885 0.321322 0.323409 0.256889 0.251064 0.244548 0.296802 0.2946 0.29182 0.323409 0.324972 0.326068 0.134554 0.123103 0.111257 0.189634 0.179465 0.168559 0.244548 0.237257 0.229235 0.111257 0.0988016 0.0856919 0.168559 0.156755 0.143925 0.229235 0.220436 0.211134 0.244548 0.237257 0.229235 0.29182 0.28845 0.284587 0.326068 0.326755 0.327174 0.229235 0.220436 0.211134 0.284587 0.280366 0.275839 0.327174 0.327609 0.328587 0.323937 0.324993 0.325832 0.299274 0.297065 0.294601 0.262035 0.256653 0.251003 0.325832 0.326327 0.326545 0.294601 0.291664 0.288319 0.251003 0.244775 0.238017 0.262035 0.256653 0.251003 0.215722 0.207705 0.199474 0.166442 0.156612 0.146746 0.251003 0.244775 0.238017 0.199474 0.19069 0.181376 0.146746 0.136502 0.125907 0.326545 0.326547 0.326483 0.288319 0.284561 0.280492 0.238017 0.230652 0.222721 0.326483 0.326646 0.327594 0.280492 0.276245 0.271862 0.222721 0.214165 0.205244 0.238017 0.230652 0.222721 0.181376 0.171454 0.160951 0.125907 0.114947 0.103736 0.222721 0.214165 0.205244 0.160951 0.149695 0.137544 0.103736 0.0920501 0.0798306 0.166442 0.156612 0.146746 0.119924 0.109201 0.098648 0.0823701 0.0713615 0.0607445 0.146746 0.136502 0.125907 0.098648 0.0880018 0.0773007 0.0607445 0.0503106 0.0401232 0.0823701 0.0713615 0.0607445 0.0585429 0.0475813 0.0371383 0.0515887 0.0407106 0.0303841 0.0607445 0.0503106 0.0401232 0.0371383 0.0270648 0.0174385 0.0303841 0.0204711 0.011051 0.125907 0.114947 0.103736 0.0773007 0.066631 0.0562401 0.0401232 0.0303537 0.0214097 0.103736 0.0920501 0.0798306 0.0562401 0.0460276 0.0361374 0.0214097 0.0133242 0.00655306 0.0401232 0.0303537 0.0214097 0.0174385 0.00848384 0.000711774 0.011051 0.00234983 -0.00508128 0.0214097 0.0133242 0.00655306 0.000711774 -0.00574112 -0.0101904 -0.00508128 -0.0110949 -0.0149382 0 0 0 0.0762669 0.0803932 0.0846997 0.148057 0.155039 0.162187 0 0 0 0.0846997 0.0891612 0.093812 0.162187 0.169417 0.176674 0.148057 0.155039 0.162187 0.211821 0.220231 0.228639 0.264165 0.272757 0.281181 0.162187 0.169417 0.176674 0.228639 0.236881 0.244862 0.281181 0.289239 0.296847 0 0 0 0.093812 0.0984909 0.103171 0.176674 0.183725 0.190462 0 0 0 0.103171 0.107653 0.111872 0.190462 0.196582 0.201931 0.176674 0.183725 0.190462 0.244862 0.252299 0.259093 0.296847 0.303744 0.309872 0.190462 0.196582 0.201931 0.259093 0.264917 0.269687 0.309872 0.314938 0.318893 0.264165 0.272757 0.281181 0.302856 0.3107 0.318326 0.326579 0.333058 0.339379 0.281181 0.289239 0.296847 0.318326 0.325572 0.332409 0.339379 0.345445 0.351299 0.326579 0.333058 0.339379 0.334074 0.338441 0.342702 0.323937 0.324993 0.325832 0.339379 0.345445 0.351299 0.342702 0.346791 0.350776 0.325832 0.326327 0.326545 0.296847 0.303744 0.309872 0.332409 0.338653 0.344306 0.351299 0.356858 0.362198 0.309872 0.314938 0.318893 0.344306 0.349222 0.353388 0.362198 0.367365 0.372512 0.351299 0.356858 0.362198 0.350776 0.354681 0.358617 0.326545 0.326547 0.326483 0.362198 0.367365 0.372512 0.358617 0.36272 0.367063 0.326483 0.326646 0.327594 0 0 0 0.111872 0.113432 0.114385 0.201931 0.202881 0.202822 0 0 0 0.114385 0.114594 0.113936 0.202822 0.201565 0.199019 0.201931 0.202881 0.202822 0.269687 0.269433 0.268005 0.318893 0.317998 0.315938 0.202822 0.201565 0.199019 0.268005 0.265213 0.260992 0.315938 0.31243 0.307425 0 0 0 0.113936 0.112381 0.109787 0.199019 0.195127 0.18982 0 0 0 0.109787 0.106307 0.101817 0.18982 0.183258 0.175451 0.199019 0.195127 0.18982 0.260992 0.25527 0.247999 0.307425 0.300763 0.29242 0.18982 0.183258 0.175451 0.247999 0.239349 0.229287 0.29242 0.282551 0.271188 0.318893 0.317998 0.315938 0.353388 0.353335 0.352142 0.372512 0.37499 0.376553 0.315938 0.31243 0.307425 0.352142 0.349368 0.34496 0.376553 0.376425 0.374462 0.372512 0.37499 0.376553 0.367063 0.373722 0.380227 0.327594 0.337833 0.349936 0.376553 0.376425 0.374462 0.380227 0.385699 0.389804 0.349936 0.362889 0.376479 0.307425 0.300763 0.29242 0.34496 0.338511 0.330009 0.374462 0.369839 0.362498 0.29242 0.282551 0.271188 0.330009 0.319565 0.307179 0.362498 0.352405 0.339657 0.374462 0.369839 0.362498 0.389804 0.390774 0.388345 0.376479 0.388118 0.396579 0.362498 0.352405 0.339657 0.388345 0.38119 0.369614 0.396579 0.398156 0.392292 0.269722 0.260706 0.254632 0.269855 0.264601 0.261418 0.265904 0.26499 0.265323 0.254632 0.249394 0.245759 0.261418 0.258669 0.257136 0.265323 0.265405 0.266157 0.265904 0.26499 0.265323 0.25788 0.262083 0.26656 0.246708 0.257049 0.265819 0.265323 0.265405 0.266157 0.26656 0.269843 0.272962 0.265819 0.272421 0.277824 0.245759 0.242462 0.239816 0.257136 0.255515 0.254153 0.266157 0.26632 0.266278 0.239816 0.237472 0.235574 0.254153 0.252746 0.251413 0.266278 0.265801 0.265021 0.266157 0.26632 0.266278 0.272962 0.274982 0.27625 0.277824 0.281626 0.284115 0.266278 0.265801 0.265021 0.27625 0.276694 0.276398 0.284115 0.285403 0.285544 0.246708 0.257049 0.265819 0.234832 0.251144 0.263981 0.224429 0.245785 0.261885 0.265819 0.272421 0.277824 0.263981 0.273696 0.28108 0.261885 0.274089 0.282984 0.224429 0.245785 0.261885 0.218431 0.242804 0.260664 0.217873 0.242321 0.260412 0.261885 0.274089 0.282984 0.260664 0.27425 0.283948 0.260412 0.274185 0.283949 0.277824 0.281626 0.284115 0.28108 0.286444 0.289967 0.282984 0.28955 0.293854 0.284115 0.285403 0.285544 0.289967 0.291967 0.29246 0.293854 0.296401 0.297145 0.282984 0.28955 0.293854 0.283948 0.291154 0.295879 0.283949 0.291253 0.296033 0.293854 0.296401 0.297145 0.295879 0.298705 0.299598 0.296033 0.298921 0.299822 0 0 0 0.101817 0.0985351 0.0943408 0.175451 0.169371 0.162185 0 0 0 0.0943408 0.0896132 0.0843995 0.162185 0.154353 0.146024 0.175451 0.169371 0.162185 0.229287 0.221334 0.212231 0.271188 0.262017 0.251632 0.162185 0.154353 0.146024 0.212231 0.20255 0.19241 0.251632 0.240708 0.229358 0 0 0 0.0843995 0.0790491 0.0736909 0.146024 0.137646 0.129402 0 0 0 0.0736909 0.0685356 0.0637334 0.129402 0.121584 0.114356 0.146024 0.137646 0.129402 0.19241 0.182395 0.172663 0.229358 0.218324 0.207733 0.129402 0.121584 0.114356 0.172663 0.163571 0.155274 0.207733 0.197998 0.189262 0.271188 0.262017 0.251632 0.307179 0.297147 0.285684 0.339657 0.328934 0.316141 0.251632 0.240708 0.229358 0.285684 0.27359 0.261001 0.316141 0.302465 0.288097 0.339657 0.328934 0.316141 0.369614 0.358462 0.344117 0.392292 0.3823 0.366756 0.316141 0.302465 0.288097 0.344117 0.32825 0.311092 0.366756 0.348168 0.327259 0.229358 0.218324 0.207733 0.261001 0.248948 0.237521 0.288097 0.274582 0.261973 0.207733 0.197998 0.189262 0.237521 0.227228 0.218112 0.261973 0.251013 0.24164 0.288097 0.274582 0.261973 0.311092 0.295369 0.280856 0.327259 0.308624 0.291978 0.261973 0.251013 0.24164 0.280856 0.268851 0.259165 0.291978 0.27932 0.269722 0 0 0 0.0637334 0.0581617 0.0533186 0.114356 0.105767 0.0982279 0 0 0 0.0533186 0.0491399 0.0457165 0.0982279 0.0917267 0.0863487 0.114356 0.105767 0.0982279 0.155274 0.145126 0.136254 0.189262 0.178388 0.168956 0.0982279 0.0917267 0.0863487 0.136254 0.128596 0.122258 0.168956 0.160843 0.154156 0 0 0 0.0457165 0.0429568 0.0409547 0.0863487 0.0820005 0.0787209 0 0 0 0.0409547 0.0395799 0.0388943 0.0787209 0.0764107 0.0750892 0.0863487 0.0820005 0.0787209 0.122258 0.117085 0.113127 0.154156 0.148663 0.144421 0.0787209 0.0764107 0.0750892 0.113127 0.110278 0.108585 0.144421 0.141307 0.139381 0.189262 0.178388 0.168956 0.218112 0.206808 0.197242 0.24164 0.230416 0.221201 0.168956 0.160843 0.154156 0.197242 0.189064 0.182436 0.221201 0.213402 0.207234 0.24164 0.230416 0.221201 0.259165 0.248531 0.240387 0.269722 0.260706 0.254632 0.221201 0.213402 0.207234 0.240387 0.233503 0.228325 0.254632 0.249394 0.245759 0.154156 0.148663 0.144421 0.182436 0.176957 0.172718 0.207234 0.202085 0.198092 0.144421 0.141307 0.139381 0.172718 0.169538 0.167478 0.198092 0.194992 0.192876 0.207234 0.202085 0.198092 0.228325 0.223895 0.22044 0.245759 0.242462 0.239816 0.198092 0.194992 0.192876 0.22044 0.217635 0.215575 0.239816 0.237472 0.235574 0.267268 0.27238 0.277938 0.254499 0.26051 0.267257 0.233187 0.239392 0.246557 0.277938 0.284051 0.290524 0.267257 0.27487 0.28323 0.246557 0.254834 0.264191 0.233187 0.239392 0.246557 0.204458 0.210204 0.217032 0.169789 0.174548 0.180392 0.246557 0.254834 0.264191 0.217032 0.225113 0.234507 0.180392 0.18749 0.195983 0.290524 0.297324 0.304197 0.28323 0.292325 0.30194 0.264191 0.274663 0.286089 0.304197 0.311489 0.31885 0.30194 0.312165 0.322678 0.286089 0.298325 0.311056 0.264191 0.274663 0.286089 0.234507 0.245327 0.257498 0.195983 0.206069 0.217806 0.286089 0.298325 0.311056 0.257498 0.270747 0.284837 0.217806 0.230899 0.245235 0.169789 0.174548 0.180392 0.130803 0.13426 0.138677 0.0888906 0.090968 0.0937684 0.180392 0.18749 0.195983 0.138677 0.144195 0.151002 0.0937684 0.0973832 0.101988 0.0888906 0.090968 0.0937684 0.0451018 0.0459583 0.047223 0 0 0 0.0937684 0.0973832 0.101988 0.047223 0.0489134 0.051157 0 0 0 0.195983 0.206069 0.217806 0.151002 0.159347 0.169418 0.101988 0.107818 0.115158 0.217806 0.230899 0.245235 0.169418 0.180958 0.194067 0.115158 0.123775 0.133935 0.101988 0.107818 0.115158 0.051157 0.054063 0.0579497 0 0 0 0.115158 0.123775 0.133935 0.0579497 0.0625644 0.0682263 0 0 0 0.234712 0.236817 0.239241 0.219083 0.221366 0.223961 0.199055 0.20126 0.203725 0.239241 0.242192 0.245656 0.223961 0.227089 0.230742 0.203725 0.206671 0.210088 0.199055 0.20126 0.203725 0.174823 0.176762 0.178886 0.14667 0.148234 0.149898 0.203725 0.206671 0.210088 0.178886 0.181396 0.184274 0.149898 0.151835 0.154012 0.245656 0.249777 0.254589 0.230742 0.235128 0.240303 0.210088 0.214221 0.219138 0.254589 0.26046 0.267268 0.240303 0.246776 0.254499 0.219138 0.225452 0.233187 0.210088 0.214221 0.219138 0.184274 0.187773 0.191955 0.154012 0.156661 0.15982 0.219138 0.225452 0.233187 0.191955 0.197491 0.204458 0.15982 0.164162 0.169789 0.14667 0.148234 0.149898 0.114895 0.116042 0.117212 0.0797472 0.0804837 0.0811871 0.149898 0.151835 0.154012 0.117212 0.118549 0.119999 0.0811871 0.0819777 0.0827792 0.0797472 0.0804837 0.0811871 0.0414126 0.0417687 0.0420715 0 0 0 0.0811871 0.0819777 0.0827792 0.0420715 0.0424164 0.042716 0 0 0 0.154012 0.156661 0.15982 0.119999 0.121761 0.123819 0.0827792 0.0837542 0.0848234 0.15982 0.164162 0.169789 0.123819 0.1268 0.130803 0.0848234 0.0865107 0.0888906 0.0827792 0.0837542 0.0848234 0.042716 0.0431007 0.0434453 0 0 0 0.0848234 0.0865107 0.0888906 0.0434453 0.0440983 0.0451018 0 0 0 0.253065 0.248146 0.242583 0.253009 0.248448 0.243299 0.254202 0.250426 0.246182 0.242583 0.236174 0.228825 0.243299 0.237382 0.230606 0.246182 0.241333 0.235794 0.254202 0.250426 0.246182 0.255876 0.253192 0.2502 0.25698 0.255536 0.253962 0.246182 0.241333 0.235794 0.2502 0.246826 0.242994 0.253962 0.252255 0.250351 0.228825 0.220092 0.209854 0.230606 0.222546 0.213085 0.235794 0.229189 0.22141 0.209854 0.197642 0.183055 0.213085 0.201768 0.188194 0.22141 0.212049 0.200714 0.235794 0.229189 0.22141 0.242994 0.238396 0.232941 0.250351 0.248024 0.245208 0.22141 0.212049 0.200714 0.232941 0.226296 0.218091 0.245208 0.241672 0.237075 0.25698 0.255536 0.253962 0.256358 0.256132 0.255946 0.252957 0.253787 0.254798 0.253962 0.252255 0.250351 0.255946 0.255867 0.255841 0.254798 0.256118 0.257709 0.252957 0.253787 0.254798 0.24592 0.247542 0.24944 0.234712 0.236817 0.239241 0.254798 0.256118 0.257709 0.24944 0.25179 0.254568 0.239241 0.242192 0.245656 0.250351 0.248024 0.245208 0.255841 0.25574 0.255517 0.257709 0.259536 0.261582 0.245208 0.241672 0.237075 0.255517 0.255071 0.254099 0.261582 0.263893 0.266216 0.257709 0.259536 0.261582 0.254568 0.257832 0.261593 0.245656 0.249777 0.254589 0.261582 0.263893 0.266216 0.261593 0.266056 0.27103 0.254589 0.26046 0.267268 0.183055 0.17172 0.158878 0.188194 0.177586 0.165515 0.200714 0.191747 0.181442 0.158878 0.144706 0.128764 0.165515 0.152136 0.137005 0.181442 0.169925 0.156746 0.200714 0.191747 0.181442 0.218091 0.211439 0.203648 0.237075 0.233127 0.228304 0.181442 0.169925 0.156746 0.203648 0.194816 0.184502 0.228304 0.222683 0.215845 0.128764 0.111375 0.0920022 0.137005 0.120398 0.101763 0.156746 0.142101 0.125417 0.0920022 0.0720945 0.0515887 0.101763 0.0824999 0.0624668 0.125417 0.107982 0.0894784 0.156746 0.142101 0.125417 0.184502 0.172801 0.159143 0.215845 0.207809 0.198035 0.125417 0.107982 0.0894784 0.159143 0.144668 0.128868 0.198035 0.187507 0.175619 0.237075 0.233127 0.228304 0.254099 0.252914 0.251162 0.266216 0.267607 0.268768 0.228304 0.222683 0.215845 0.251162 0.248914 0.245794 0.268768 0.269778 0.270316 0.266216 0.267607 0.268768 0.27103 0.274566 0.278218 0.267268 0.27238 0.277938 0.268768 0.269778 0.270316 0.278218 0.282076 0.285879 0.277938 0.284051 0.290524 0.215845 0.207809 0.198035 0.245794 0.241772 0.23638 0.270316 0.270338 0.269458 0.198035 0.187507 0.175619 0.23638 0.230474 0.223404 0.269458 0.268406 0.266656 0.270316 0.270338 0.269458 0.285879 0.289586 0.292891 0.290524 0.29