# vtk DataFile Version 3.0
#This file was generated by the deal.II library on 2024/9/17 at 11:46:05
ASCII
DATASET UNSTRUCTURED_GRID

POINTS 5760 double
0.11 0.11 0
0.09625 0.10875 0
0.0825 0.1075 0
0.10875 0.09625 0
0.0951562 0.0951563 0
0.0815625 0.0940625 0
0.1075 0.0825 0
0.0940625 0.0815625 0
0.080625 0.080625 0
0.0825 0.1075 0
0.06875 0.10625 0
0.055 0.105 0
0.0815625 0.0940625 0
0.0679688 0.0929688 0
0.054375 0.091875 0
0.080625 0.080625 0
0.0671875 0.0796875 0
0.05375 0.07875 0
0.1075 0.0825 0
0.0940625 0.0815625 0
0.080625 0.080625 0
0.10625 0.06875 0
0.0929688 0.0679688 0
0.0796875 0.0671875 0
0.105 0.055 0
0.091875 0.054375 0
0.07875 0.05375 0
0.080625 0.080625 0
0.0671875 0.0796875 0
0.05375 0.07875 0
0.0796875 0.0671875 0
0.0664063 0.0664062 0
0.053125 0.065625 0
0.07875 0.05375 0
0.065625 0.053125 0
0.0525 0.0525 0
0.055 0.105 0
0.04125 0.10375 0
0.0275 0.1025 0
0.054375 0.091875 0
0.0407813 0.0907813 0
0.0271875 0.0896875 0
0.05375 0.07875 0
0.0403125 0.0778125 0
0.026875 0.076875 0
0.0275 0.1025 0
0.01375 0.10125 0
0 0.1 0
0.0271875 0.0896875 0
0.0135938 0.0885938 0
0 0.0875 0
0.026875 0.076875 0
0.0134375 0.0759375 0
0 0.075 0
0.05375 0.07875 0
0.0403125 0.0778125 0
0.026875 0.076875 0
0.053125 0.065625 0
0.0398438 0.0648438 0
0.0265625 0.0640625 0
0.0525 0.0525 0
0.039375 0.051875 0
0.02625 0.05125 0
0.026875 0.076875 0
0.0134375 0.0759375 0
0 0.075 0
0.0265625 0.0640625 0
0.0132813 0.0632813 0
0 0.0625 0
0.02625 0.05125 0
0.013125 0.050625 0
0 0.05 0
0.105 0.055 0
0.091875 0.054375 0
0.07875 0.05375 0
0.10375 0.04125 0
0.0907813 0.0407813 0
0.0778125 0.0403125 0
0.1025 0.0275 0
0.0896875 0.0271875 0
0.076875 0.026875 0
0.07875 0.05375 0
0.065625 0.053125 0
0.0525 0.0525 0
0.0778125 0.0403125 0
0.0648438 0.0398438 0
0.051875 0.039375 0
0.076875 0.026875 0
0.0640625 0.0265625 0
0.05125 0.02625 0
0.1025 0.0275 0
0.0896875 0.0271875 0
0.076875 0.026875 0
0.10125 0.01375 0
0.0885937 0.0135938 0
0.0759375 0.0134375 0
0.1 0 0
0.0875 0 0
0.075 0 0
0.076875 0.026875 0
0.0640625 0.0265625 0
0.05125 0.02625 0
0.0759375 0.0134375 0
0.0632812 0.0132813 0
0.050625 0.013125 0
0.075 0 0
0.0625 0 0
0.05 0 0
0.0525 0.0525 0
0.039375 0.051875 0
0.02625 0.05125 0
0.051875 0.039375 0
0.0389063 0.0389063 0
0.0259375 0.0384375 0
0.05125 0.02625 0
0.0384375 0.0259375 0
0.025625 0.025625 0
0.02625 0.05125 0
0.013125 0.050625 0
0 0.05 0
0.0259375 0.0384375 0
0.0129688 0.0379688 0
0 0.0375 0
0.025625 0.025625 0
0.0128125 0.0253125 0
0 0.025 0
0.05125 0.02625 0
0.0384375 0.0259375 0
0.025625 0.025625 0
0.050625 0.013125 0
0.0379688 0.0129688 0
0.0253125 0.0128125 0
0.05 0 0
0.0375 0 0
0.025 0 0
0.025625 0.025625 0
0.0128125 0.0253125 0
0 0.025 0
0.0253125 0.0128125 0
0.0126563 0.0126563 0
0 0.0125 0
0.025 0 0
0.0125 0 0
0 0 0
0.2 0.1 0
0.18875 0.10125 0
0.1775 0.1025 0
0.2 0.0875 0
0.188594 0.0885938 0
0.177187 0.0896875 0
0.2 0.075 0
0.188438 0.0759375 0
0.176875 0.076875 0
0.1775 0.1025 0
0.16625 0.10375 0
0.155 0.105 0
0.177187 0.0896875 0
0.165781 0.0907813 0
0.154375 0.091875 0
0.176875 0.076875 0
0.165313 0.0778125 0
0.15375 0.07875 0
0.2 0.075 0
0.188438 0.0759375 0
0.176875 0.076875 0
0.2 0.0625 0
0.188281 0.0632813 0
0.176563 0.0640625 0
0.2 0.05 0
0.188125 0.050625 0
0.17625 0.05125 0
0.176875 0.076875 0
0.165313 0.0778125 0
0.15375 0.07875 0
0.176563 0.0640625 0
0.164844 0.0648438 0
0.153125 0.065625 0
0.17625 0.05125 0
0.164375 0.051875 0
0.1525 0.0525 0
0.155 0.105 0
0.14375 0.10625 0
0.1325 0.1075 0
0.154375 0.091875 0
0.142969 0.0929688 0
0.131562 0.0940625 0
0.15375 0.07875 0
0.142187 0.0796875 0
0.130625 0.080625 0
0.1325 0.1075 0
0.12125 0.10875 0
0.11 0.11 0
0.131562 0.0940625 0
0.120156 0.0951563 0
0.10875 0.09625 0
0.130625 0.080625 0
0.119063 0.0815625 0
0.1075 0.0825 0
0.15375 0.07875 0
0.142187 0.0796875 0
0.130625 0.080625 0
0.153125 0.065625 0
0.141406 0.0664062 0
0.129688 0.0671875 0
0.1525 0.0525 0
0.140625 0.053125 0
0.12875 0.05375 0
0.130625 0.080625 0
0.119063 0.0815625 0
0.1075 0.0825 0
0.129688 0.0671875 0
0.117969 0.0679688 0
0.10625 0.06875 0
0.12875 0.05375 0
0.116875 0.054375 0
0.105 0.055 0
0.2 0.05 0
0.188125 0.050625 0
0.17625 0.05125 0
0.2 0.0375 0
0.187969 0.0379688 0
0.175938 0.0384375 0
0.2 0.025 0
0.187813 0.0253125 0
0.175625 0.025625 0
0.17625 0.05125 0
0.164375 0.051875 0
0.1525 0.0525 0
0.175938 0.0384375 0
0.163906 0.0389063 0
0.151875 0.039375 0
0.175625 0.025625 0
0.163438 0.0259375 0
0.15125 0.02625 0
0.2 0.025 0
0.187813 0.0253125 0
0.175625 0.025625 0
0.2 0.0125 0
0.187656 0.0126563 0
0.175313 0.0128125 0
0.2 0 0
0.1875 0 0
0.175 0 0
0.175625 0.025625 0
0.163438 0.0259375 0
0.15125 0.02625 0
0.175313 0.0128125 0
0.162969 0.0129688 0
0.150625 0.013125 0
0.175 0 0
0.1625 0 0
0.15 0 0
0.1525 0.0525 0
0.140625 0.053125 0
0.12875 0.05375 0
0.151875 0.039375 0
0.139844 0.0398438 0
0.127813 0.0403125 0
0.15125 0.02625 0
0.139063 0.0265625 0
0.126875 0.026875 0
0.12875 0.05375 0
0.116875 0.054375 0
0.105 0.055 0
0.127813 0.0403125 0
0.115781 0.0407813 0
0.10375 0.04125 0
0.126875 0.026875 0
0.114688 0.0271875 0
0.1025 0.0275 0
0.15125 0.02625 0
0.139063 0.0265625 0
0.126875 0.026875 0
0.150625 0.013125 0
0.138281 0.0132813 0
0.125938 0.0134375 0
0.15 0 0
0.1375 0 0
0.125 0 0
0.126875 0.026875 0
0.114688 0.0271875 0
0.1025 0.0275 0
0.125938 0.0134375 0
0.113594 0.0135938 0
0.10125 0.01375 0
0.125 0 0
0.1125 0 0
0.1 0 0
0.1 0.2 0
0.0875 0.2 0
0.075 0.2 0
0.10125 0.18875 0
0.0885937 0.188594 0
0.0759375 0.188438 0
0.1025 0.1775 0
0.0896875 0.177187 0
0.076875 0.176875 0
0.075 0.2 0
0.0625 0.2 0
0.05 0.2 0
0.0759375 0.188438 0
0.0632813 0.188281 0
0.050625 0.188125 0
0.076875 0.176875 0
0.0640625 0.176563 0
0.05125 0.17625 0
0.1025 0.1775 0
0.0896875 0.177187 0
0.076875 0.176875 0
0.10375 0.16625 0
0.0907813 0.165781 0
0.0778125 0.165313 0
0.105 0.155 0
0.091875 0.154375 0
0.07875 0.15375 0
0.076875 0.176875 0
0.0640625 0.176563 0
0.05125 0.17625 0
0.0778125 0.165313 0
0.0648438 0.164844 0
0.051875 0.164375 0
0.07875 0.15375 0
0.065625 0.153125 0
0.0525 0.1525 0
0.05 0.2 0
0.0375 0.2 0
0.025 0.2 0
0.050625 0.188125 0
0.0379688 0.187969 0
0.0253125 0.187813 0
0.05125 0.17625 0
0.0384375 0.175938 0
0.025625 0.175625 0
0.025 0.2 0
0.0125 0.2 0
0 0.2 0
0.0253125 0.187813 0
0.0126563 0.187656 0
0 0.1875 0
0.025625 0.175625 0
0.0128125 0.175313 0
0 0.175 0
0.05125 0.17625 0
0.0384375 0.175938 0
0.025625 0.175625 0
0.051875 0.164375 0
0.0389063 0.163906 0
0.0259375 0.163438 0
0.0525 0.1525 0
0.039375 0.151875 0
0.02625 0.15125 0
0.025625 0.175625 0
0.0128125 0.175313 0
0 0.175 0
0.0259375 0.163438 0
0.0129688 0.162969 0
0 0.1625 0
0.02625 0.15125 0
0.013125 0.150625 0
0 0.15 0
0.105 0.155 0
0.091875 0.154375 0
0.07875 0.15375 0
0.10625 0.14375 0
0.0929688 0.142969 0
0.0796875 0.142187 0
0.1075 0.1325 0
0.0940625 0.131562 0
0.080625 0.130625 0
0.07875 0.15375 0
0.065625 0.153125 0
0.0525 0.1525 0
0.0796875 0.142187 0
0.0664063 0.141406 0
0.053125 0.140625 0
0.080625 0.130625 0
0.0671875 0.129688 0
0.05375 0.12875 0
0.1075 0.1325 0
0.0940625 0.131562 0
0.080625 0.130625 0
0.10875 0.12125 0
0.0951563 0.120156 0
0.0815625 0.119063 0
0.11 0.11 0
0.09625 0.10875 0
0.0825 0.1075 0
0.080625 0.130625 0
0.0671875 0.129688 0
0.05375 0.12875 0
0.0815625 0.119063 0
0.0679688 0.117969 0
0.054375 0.116875 0
0.0825 0.1075 0
0.06875 0.10625 0
0.055 0.105 0
0.0525 0.1525 0
0.039375 0.151875 0
0.02625 0.15125 0
0.053125 0.140625 0
0.0398438 0.139844 0
0.0265625 0.139063 0
0.05375 0.12875 0
0.0403125 0.127813 0
0.026875 0.126875 0
0.02625 0.15125 0
0.013125 0.150625 0
0 0.15 0
0.0265625 0.139063 0
0.0132813 0.138281 0
0 0.1375 0
0.026875 0.126875 0
0.0134375 0.125938 0
0 0.125 0
0.05375 0.12875 0
0.0403125 0.127813 0
0.026875 0.126875 0
0.054375 0.116875 0
0.0407813 0.115781 0
0.0271875 0.114688 0
0.055 0.105 0
0.04125 0.10375 0
0.0275 0.1025 0
0.026875 0.126875 0
0.0134375 0.125938 0
0 0.125 0
0.0271875 0.114688 0
0.0135938 0.113594 0
0 0.1125 0
0.0275 0.1025 0
0.01375 0.10125 0
0 0.1 0
0.29 0.11 0
0.27875 0.10875 0
0.2675 0.1075 0
0.29125 0.09625 0
0.279844 0.0951563 0
0.268437 0.0940625 0
0.2925 0.0825 0
0.280938 0.0815625 0
0.269375 0.080625 0
0.2675 0.1075 0
0.25625 0.10625 0
0.245 0.105 0
0.268437 0.0940625 0
0.257031 0.0929688 0
0.245625 0.091875 0
0.269375 0.080625 0
0.257812 0.0796875 0
0.24625 0.07875 0
0.2925 0.0825 0
0.280938 0.0815625 0
0.269375 0.080625 0
0.29375 0.06875 0
0.282031 0.0679688 0
0.270313 0.0671875 0
0.295 0.055 0
0.283125 0.054375 0
0.27125 0.05375 0
0.269375 0.080625 0
0.257812 0.0796875 0
0.24625 0.07875 0
0.270313 0.0671875 0
0.258594 0.0664062 0
0.246875 0.065625 0
0.27125 0.05375 0
0.259375 0.053125 0
0.2475 0.0525 0
0.245 0.105 0
0.23375 0.10375 0
0.2225 0.1025 0
0.245625 0.091875 0
0.234219 0.0907813 0
0.222813 0.0896875 0
0.24625 0.07875 0
0.234687 0.0778125 0
0.223125 0.076875 0
0.2225 0.1025 0
0.21125 0.10125 0
0.2 0.1 0
0.222813 0.0896875 0
0.211406 0.0885937 0
0.2 0.0875 0
0.223125 0.076875 0
0.211563 0.0759375 0
0.2 0.075 0
0.24625 0.07875 0
0.234687 0.0778125 0
0.223125 0.076875 0
0.246875 0.065625 0
0.235156 0.0648438 0
0.223438 0.0640625 0
0.2475 0.0525 0
0.235625 0.051875 0
0.22375 0.05125 0
0.223125 0.076875 0
0.211563 0.0759375 0
0.2 0.075 0
0.223438 0.0640625 0
0.211719 0.0632813 0
0.2 0.0625 0
0.22375 0.05125 0
0.211875 0.050625 0
0.2 0.05 0
0.295 0.055 0
0.283125 0.054375 0
0.27125 0.05375 0
0.29625 0.04125 0
0.284219 0.0407813 0
0.272188 0.0403125 0
0.2975 0.0275 0
0.285312 0.0271875 0
0.273125 0.026875 0
0.27125 0.05375 0
0.259375 0.053125 0
0.2475 0.0525 0
0.272188 0.0403125 0
0.260156 0.0398438 0
0.248125 0.039375 0
0.273125 0.026875 0
0.260937 0.0265625 0
0.24875 0.02625 0
0.2975 0.0275 0
0.285312 0.0271875 0
0.273125 0.026875 0
0.29875 0.01375 0
0.286406 0.0135938 0
0.274062 0.0134375 0
0.3 0 0
0.2875 0 0
0.275 0 0
0.273125 0.026875 0
0.260937 0.0265625 0
0.24875 0.02625 0
0.274062 0.0134375 0
0.261719 0.0132813 0
0.249375 0.013125 0
0.275 0 0
0.2625 0 0
0.25 0 0
0.2475 0.0525 0
0.235625 0.051875 0
0.22375 0.05125 0
0.248125 0.039375 0
[...]
POINT_DATA 5760
SCALARS x_velo double 1
LOOKUP_TABLE default
0.259828 0.249939 0.24309 0.248519 0.237159 0.228401 0.231185 0.219243 0.209467 0.24309 0.237178 0.23294 0.228401 0.220977 0.21533 0.209467 0.201185 0.194626 0.231185 0.219243 0.209467 0.208578 0.196551 0.186421 0.181093 0.169499 0.159506 0.209467 0.201185 0.194626 0.186421 0.177774 0.170784 0.159506 0.150941 0.14392 0.23294 0.22915 0.226087 0.21533 0.210512 0.206729 0.194626 0.189154 0.184901 0.226087 0.223425 0.221297 0.206729 0.203676 0.201443 0.184901 0.181607 0.179358 0.194626 0.189154 0.184901 0.170784 0.165013 0.160551 0.14392 0.13817 0.133743 0.184901 0.181607 0.179358 0.160551 0.157206 0.155042 0.133743 0.130496 0.128495 0.181093 0.169499 0.159506 0.148637 0.137849 0.12849 0.109401 0.100341 0.0924604 0.159506 0.150941 0.14392 0.12849 0.120451 0.113847 0.0924604 0.0857088 0.0801702 0.109401 0.100341 0.0924604 0.0607994 0.0550059 0.0500248 0 0 0 0.0924604 0.0857088 0.0801702 0.0500248 0.0457561 0.0422949 0 0 0 0.14392 0.13817 0.133743 0.113847 0.108478 0.104393 0.0801702 0.0757149 0.0723811 0.133743 0.130496 0.128495 0.104393 0.101457 0.0997174 0.0723811 0.0700413 0.0687091 0.0801702 0.0757149 0.0723811 0.0422949 0.0395175 0.037519 0 0 0 0.0723811 0.0700413 0.0687091 0.037519 0.0361492 0.03547 0 0 0 0.386497 0.376164 0.360192 0.364526 0.352963 0.337934 0.335976 0.324684 0.311042 0.360192 0.341106 0.319625 0.337934 0.321254 0.303196 0.311042 0.296395 0.280951 0.335976 0.324684 0.311042 0.304712 0.294084 0.281746 0.269657 0.259975 0.248815 0.311042 0.296395 0.280951 0.281746 0.268659 0.254974 0.248815 0.236985 0.224627 0.319625 0.300359 0.283104 0.303196 0.286615 0.271344 0.280951 0.266432 0.252908 0.283104 0.269887 0.259828 0.271344 0.258701 0.248519 0.252908 0.241175 0.231185 0.280951 0.266432 0.252908 0.254974 0.24188 0.229491 0.224627 0.21261 0.201088 0.252908 0.241175 0.231185 0.229491 0.218368 0.208578 0.201088 0.190528 0.181093 0.269657 0.259975 0.248815 0.228093 0.219836 0.210158 0.174151 0.168 0.160495 0.248815 0.236985 0.224627 0.210158 0.199759 0.188782 0.160495 0.152201 0.143287 0.174151 0.168 0.160495 0.100548 0.0973314 0.0930271 0 0 0 0.160495 0.152201 0.143287 0.0930271 0.0881006 0.0825944 0 0 0 0.224627 0.21261 0.201088 0.188782 0.177928 0.167384 0.143287 0.1343 0.125456 0.201088 0.190528 0.181093 0.167384 0.157559 0.148637 0.125456 0.117093 0.109401 0.143287 0.1343 0.125456 0.0825944 0.0769319 0.0712632 0 0 0 0.125456 0.117093 0.109401 0.0712632 0.0658269 0.0607994 0 0 0 0.217873 0.242321 0.260412 0.217315 0.241529 0.259263 0.22219 0.243237 0.259084 0.260412 0.274185 0.28395 0.259263 0.272743 0.282358 0.259084 0.271077 0.279804 0.22219 0.243237 0.259084 0.231444 0.247298 0.259768 0.242119 0.251885 0.26018 0.259084 0.271077 0.279804 0.259768 0.269174 0.276308 0.26018 0.266384 0.271455 0.28395 0.291253 0.296033 0.282358 0.289495 0.294165 0.279804 0.286231 0.290426 0.296033 0.298921 0.299822 0.294165 0.296949 0.297814 0.290426 0.292889 0.293575 0.279804 0.286231 0.290426 0.276308 0.281465 0.284824 0.271455 0.274986 0.277257 0.290426 0.292889 0.293575 0.284824 0.286699 0.287106 0.277257 0.278379 0.278406 0.242119 0.251885 0.26018 0.252032 0.255562 0.259472 0.258743 0.257075 0.256764 0.26018 0.266384 0.271455 0.259472 0.262277 0.264987 0.256764 0.256297 0.25657 0.258743 0.257075 0.256764 0.26135 0.255266 0.251372 0.259828 0.249939 0.24309 0.256764 0.256297 0.25657 0.251372 0.248006 0.245932 0.24309 0.237178 0.23294 0.271455 0.274986 0.277257 0.264987 0.266678 0.267674 0.25657 0.256347 0.255983 0.277257 0.278379 0.278406 0.267674 0.267914 0.267475 0.255983 0.255263 0.254313 0.25657 0.256347 0.255983 0.245932 0.243871 0.24214 0.23294 0.22915 0.226087 0.255983 0.255263 0.254313 0.24214 0.240454 0.23892 0.226087 0.223425 0.221297 0.328604 0.338078 0.349311 0.362123 0.368675 0.375141 0.366304 0.369352 0.371541 0.349311 0.361308 0.373911 0.375141 0.38065 0.384884 0.371541 0.372051 0.370707 0.366304 0.369352 0.371541 0.348099 0.348983 0.348679 0.313992 0.314256 0.313243 0.371541 0.372051 0.370707 0.348679 0.346668 0.342873 0.313243 0.310589 0.306231 0.373911 0.384592 0.392179 0.384884 0.386003 0.383685 0.370707 0.366536 0.359431 0.392179 0.393025 0.386497 0.383685 0.376456 0.364526 0.359431 0.349213 0.335976 0.370707 0.366536 0.359431 0.342873 0.336781 0.328361 0.306231 0.299934 0.291661 0.359431 0.349213 0.335976 0.328361 0.317672 0.304712 0.291661 0.281558 0.269657 0.313992 0.314256 0.313243 0.264083 0.265081 0.264805 0.195738 0.197807 0.198823 0.313243 0.310589 0.306231 0.264805 0.262982 0.259528 0.198823 0.198521 0.196785 0.195738 0.197807 0.198823 0.107098 0.109312 0.110933 0 0 0 0.198823 0.198521 0.196785 0.110933 0.111768 0.111677 0 0 0 0.306231 0.299934 0.291661 0.259528 0.254303 0.247245 0.196785 0.193493 0.18855 0.291661 0.281558 0.269657 0.247245 0.238525 0.228093 0.18855 0.182105 0.174151 0.196785 0.193493 0.18855 0.111677 0.110586 0.108318 0 0 0 0.18855 0.182105 0.174151 0.108318 0.105027 0.100548 0 0 0 0.318847 0.321324 0.323416 0.322646 0.328447 0.333996 0.311001 0.319087 0.326953 0.323416 0.324983 0.326082 0.333996 0.339189 0.34408 0.326953 0.334449 0.341587 0.311001 0.319087 0.326953 0.284765 0.294276 0.303633 0.245154 0.255195 0.265238 0.326953 0.334449 0.341587 0.303633 0.312618 0.321171 0.265238 0.275049 0.284512 0.326082 0.32677 0.32719 0.34408 0.348689 0.353131 0.341587 0.348263 0.354549 0.32719 0.327626 0.328604 0.353131 0.357577 0.362123 0.354549 0.360502 0.366304 0.341587 0.348263 0.354549 0.321171 0.329058 0.336261 0.284512 0.293309 0.301347 0.354549 0.360502 0.366304 0.336261 0.34261 0.348099 0.301347 0.308267 0.313992 0.245154 0.255195 0.265238 0.193989 0.203379 0.212972 0.133873 0.141299 0.149057 0.265238 0.275049 0.284512 0.212972 0.222586 0.232117 0.149057 0.157059 0.165259 0.133873 0.141299 0.149057 0.0681915 0.0723967 0.0768767 0 0 0 0.149057 0.157059 0.165259 0.0768767 0.0815952 0.0866024 0 0 0 0.284512 0.293309 0.301347 0.232117 0.24124 0.249829 0.165259 0.173412 0.181411 0.301347 0.308267 0.313992 0.249829 0.257484 0.264083 0.181411 0.18891 0.195738 0.165259 0.173412 0.181411 0.0866024 0.0917334 0.0969819 0 0 0 0.181411 0.18891 0.195738 0.0969819 0.102122 0.107098 0 0 0 0.0516332 0.0407453 0.0304103 0.0625164 0.0514169 0.0407975 0.0895392 0.0783339 0.0674437 0.0304103 0.0204899 0.0110636 0.0407975 0.0305042 0.0206182 0.0674437 0.05665 0.046023 0.0895392 0.0783339 0.0674437 0.128939 0.118088 0.107297 0.175694 0.165933 0.156002 0.0674437 0.05665 0.046023 0.107297 0.0962896 0.0851125 0.156002 0.145546 0.134599 0.0110636 0.00235738 -0.00507768 0.0206182 0.0113661 0.00325768 0.046023 0.0357361 0.0261956 -0.00507768 -0.0110943 -0.0149394 0.00325768 -0.00356807 -0.00842912 0.0261956 0.0174388 0.00992238 0.046023 0.0357361 0.0261956 0.0851125 0.0738511 0.0627519 0.134599 0.123142 0.111289 0.0261956 0.0174388 0.00992238 0.0627519 0.0517217 0.0409095 0.111289 0.098828 0.0857128 0.175694 0.165933 0.156002 0.223472 0.21582 0.207807 0.266707 0.262031 0.256937 0.156002 0.145546 0.134599 0.207807 0.199086 0.189681 0.256937 0.25111 0.244591 0.266707 0.262031 0.256937 0.299556 0.298399 0.296832 0.318847 0.321324 0.323416 0.256937 0.25111 0.244591 0.296832 0.29463 0.29185 0.323416 0.324983 0.326082 0.134599 0.123142 0.111289 0.189681 0.179508 0.168596 0.244591 0.237297 0.229271 0.111289 0.098828 0.0857128 0.168596 0.156786 0.143951 0.229271 0.220468 0.211162 0.244591 0.237297 0.229271 0.29185 0.288479 0.284616 0.326082 0.32677 0.32719 0.229271 0.220468 0.211162 0.284616 0.280393 0.275864 0.32719 0.327626 0.328604 0.323946 0.325006 0.325848 0.299312 0.297104 0.29464 0.262098 0.256713 0.251059 0.325848 0.326346 0.326566 0.29464 0.291703 0.288357 0.251059 0.244828 0.238067 0.262098 0.256713 0.251059 0.215799 0.207777 0.199539 0.166522 0.156684 0.14681 0.251059 0.244828 0.238067 0.199539 0.190749 0.181429 0.14681 0.136558 0.125956 0.326566 0.326569 0.326505 0.288357 0.284597 0.280527 0.238067 0.230697 0.222762 0.326505 0.326668 0.327615 0.280527 0.276277 0.271891 0.222762 0.214202 0.205276 0.238067 0.230697 0.222762 0.181429 0.1715 0.160992 0.125956 0.114989 0.10377 0.222762 0.214202 0.205276 0.160992 0.149729 0.137573 0.10377 0.0920784 0.0798531 0.166522 0.156684 0.14681 0.119997 0.109264 0.0987024 0.0824308 0.0714119 0.0607858 0.14681 0.136558 0.125956 0.0987024 0.0880478 0.0773389 0.0607858 0.0503437 0.0401491 0.0824308 0.0714119 0.0607858 0.0585919 0.0476202 0.0371685 0.0516332 0.0407453 0.0304103 0.0607858 0.0503437 0.0401491 0.0371685 0.0270874 0.0174546 0.0304103 0.0204899 0.0110636 0.125956 0.114989 0.10377 0.0773389 0.066662 0.0562648 0.0401491 0.0303732 0.021424 0.10377 0.0920784 0.0798531 0.0562648 0.0460468 0.0361516 0.021424 0.0133341 0.00655943 0.0401491 0.0303732 0.021424 0.0174546 0.00849451 0.00071815 0.0110636 0.00235738 -0.00507768 0.021424 0.0133341 0.00655943 0.00071815 -0.00573805 -0.0101896 -0.00507768 -0.0110943 -0.0149394 0 0 0 0.076227 0.0803557 0.0846647 0.147987 0.154975 0.162128 0 0 0 0.0846647 0.0891287 0.0937821 0.162128 0.169364 0.176626 0.147987 0.154975 0.162128 0.211737 0.220155 0.228571 0.264081 0.272683 0.281116 0.162128 0.169364 0.176626 0.228571 0.23682 0.244809 0.281116 0.289183 0.296798 0 0 0 0.0937821 0.0984636 0.103146 0.176626 0.183682 0.190424 0 0 0 0.103146 0.107631 0.111853 0.190424 0.196549 0.201902 0.176626 0.183682 0.190424 0.244809 0.252252 0.259053 0.296798 0.303702 0.309836 0.190424 0.196549 0.201902 0.259053 0.264883 0.269657 0.309836 0.314908 0.318868 0.264081 0.272683 0.281116 0.302784 0.310638 0.318273 0.326528 0.333016 0.339344 0.281116 0.289183 0.296798 0.318273 0.325526 0.33237 0.339344 0.345417 0.351276 0.326528 0.333016 0.339344 0.334051 0.338424 0.342691 0.323946 0.325006 0.325848 0.339344 0.345417 0.351276 0.342691 0.346785 0.350773 0.325848 0.326346 0.326566 0.296798 0.303702 0.309836 0.33237 0.338621 0.34428 0.351276 0.35684 0.362184 0.309836 0.314908 0.318868 0.34428 0.349201 0.35337 0.362184 0.367355 0.372504 0.351276 0.35684 0.362184 0.350773 0.354682 0.35862 0.326566 0.326569 0.326505 0.362184 0.367355 0.372504 0.35862 0.362725 0.367069 0.326505 0.326668 0.327615 0 0 0 0.111853 0.113415 0.11437 0.201902 0.202856 0.202801 0 0 0 0.11437 0.114581 0.113925 0.202801 0.201547 0.199004 0.201902 0.202856 0.202801 0.269657 0.269408 0.267983 0.318868 0.317977 0.31592 0.202801 0.201547 0.199004 0.267983 0.265195 0.260977 0.31592 0.312415 0.307412 0 0 0 0.113925 0.112372 0.10978 0.199004 0.195114 0.18981 0 0 0 0.10978 0.106301 0.101812 0.18981 0.18325 0.175445 0.199004 0.195114 0.18981 0.260977 0.255257 0.247989 0.307412 0.300753 0.292412 0.18981 0.18325 0.175445 0.247989 0.239341 0.229281 0.292412 0.282544 0.271182 0.318868 0.317977 0.31592 0.35337 0.35332 0.352129 0.372504 0.374983 0.376546 0.31592 0.312415 0.307412 0.352129 0.349357 0.344951 0.376546 0.376419 0.374458 0.372504 0.374983 0.376546 0.367069 0.373727 0.38023 0.327615 0.337851 0.349952 0.376546 0.376419 0.374458 0.38023 0.385702 0.389806 0.349952 0.362902 0.37649 0.307412 0.300753 0.292412 0.344951 0.338503 0.330003 0.374458 0.369835 0.362494 0.292412 0.282544 0.271182 0.330003 0.31956 0.307174 0.362494 0.352403 0.339655 0.374458 0.369835 0.362494 0.389806 0.390775 0.388346 0.37649 0.388126 0.396585 0.362494 0.352403 0.339655 0.388346 0.381191 0.369614 0.396585 0.39816 0.392295 0.269722 0.260706 0.254632 0.269855 0.264601 0.261418 0.265904 0.26499 0.265323 0.254632 0.249394 0.245759 0.261418 0.258669 0.257136 0.265323 0.265405 0.266157 0.265904 0.26499 0.265323 0.257881 0.262084 0.26656 0.246708 0.257049 0.265819 0.265323 0.265405 0.266157 0.26656 0.269844 0.272962 0.265819 0.272421 0.277825 0.245759 0.242462 0.239816 0.257136 0.255515 0.254153 0.266157 0.26632 0.266278 0.239816 0.237472 0.235574 0.254153 0.252746 0.251413 0.266278 0.265801 0.265021 0.266157 0.26632 0.266278 0.272962 0.274982 0.27625 0.277825 0.281626 0.284115 0.266278 0.265801 0.265021 0.27625 0.276694 0.276398 0.284115 0.285403 0.285544 0.246708 0.257049 0.265819 0.234832 0.251144 0.263982 0.22443 0.245786 0.261886 0.265819 0.272421 0.277825 0.263982 0.273696 0.281081 0.261886 0.274089 0.282984 0.22443 0.245786 0.261886 0.218432 0.242805 0.260664 0.217873 0.242321 0.260412 0.261886 0.274089 0.282984 0.260664 0.27425 0.283949 0.260412 0.274185 0.28395 0.277825 0.281626 0.284115 0.281081 0.286444 0.289967 0.282984 0.28955 0.293855 0.284115 0.285403 0.285544 0.289967 0.291967 0.29246 0.293855 0.296401 0.297145 0.282984 0.28955 0.293855 0.283949 0.291155 0.295879 0.28395 0.291253 0.296033 0.293855 0.296401 0.297145 0.295879 0.298705 0.299598 0.296033 0.298921 0.299822 0 0 0 0.101812 0.0985313 0.0943377 0.175445 0.169365 0.162181 0 0 0 0.0943377 0.0896108 0.0843976 0.162181 0.15435 0.146022 0.175445 0.169365 0.162181 0.229281 0.221328 0.212227 0.271182 0.262012 0.251629 0.162181 0.15435 0.146022 0.212227 0.202546 0.192407 0.251629 0.240705 0.229356 0 0 0 0.0843976 0.0790477 0.0736899 0.146022 0.137644 0.129401 0 0 0 0.0736899 0.0685348 0.0637328 0.129401 0.121583 0.114355 0.146022 0.137644 0.129401 0.192407 0.182393 0.172662 0.229356 0.218322 0.207732 0.129401 0.121583 0.114355 0.172662 0.16357 0.155274 0.207732 0.197997 0.189262 0.271182 0.262012 0.251629 0.307174 0.297144 0.285681 0.339655 0.328932 0.31614 0.251629 0.240705 0.229356 0.285681 0.273588 0.261 0.31614 0.302464 0.288096 0.339655 0.328932 0.31614 0.369614 0.358462 0.344118 0.392295 0.382303 0.366758 0.31614 0.302464 0.288096 0.344118 0.32825 0.311092 0.366758 0.348169 0.32726 0.229356 0.218322 0.207732 0.261 0.248947 0.23752 0.288096 0.274582 0.261972 0.207732 0.197997 0.189262 0.23752 0.227227 0.218112 0.261972 0.251013 0.24164 0.288096 0.274582 0.261972 0.311092 0.295369 0.280856 0.32726 0.308625 0.291978 0.261972 0.251013 0.24164 0.280856 0.268851 0.259165 0.291978 0.279321 0.269722 0 0 0 0.0637328 0.0581613 0.0533184 0.114355 0.105766 0.0982275 0 0 0 0.0533184 0.0491397 0.0457164 0.0982275 0.0917264 0.0863486 0.114355 0.105766 0.0982275 0.155274 0.145125 0.136254 0.189262 0.178387 0.168955 0.0982275 0.0917264 0.0863486 0.136254 0.128595 0.122258 0.168955 0.160842 0.154155 0 0 0 0.0457164 0.0429568 0.0409547 0.0863486 0.0820004 0.0787208 0 0 0 0.0409547 0.0395799 0.0388943 0.0787208 0.0764107 0.0750892 0.0863486 0.0820004 0.0787208 0.122258 0.117085 0.113127 0.154155 0.148662 0.144421 0.0787208 0.0764107 0.0750892 0.113127 0.110278 0.108585 0.144421 0.141307 0.139381 0.189262 0.178387 0.168955 0.218112 0.206808 0.197242 0.24164 0.230416 0.2212 0.168955 0.160842 0.154155 0.197242 0.189064 0.182436 0.2212 0.213402 0.207234 0.24164 0.230416 0.2212 0.259165 0.248531 0.240387 0.269722 0.260706 0.254632 0.2212 0.213402 0.207234 0.240387 0.233503 0.228325 0.254632 0.249394 0.245759 0.154155 0.148662 0.144421 0.182436 0.176956 0.172718 0.207234 0.202085 0.198092 0.144421 0.141307 0.139381 0.172718 0.169538 0.167478 0.198092 0.194992 0.192876 0.207234 0.202085 0.198092 0.228325 0.223895 0.22044 0.245759 0.242462 0.239816 0.198092 0.194992 0.192876 0.22044 0.217635 0.215575 0.239816 0.237472 0.235574 0.26716 0.272289 0.277864 0.25432 0.260353 0.267121 0.23296 0.239188 0.246376 0.277864 0.283992 0.290479 0.267121 0.274755 0.283135 0.246376 0.254676 0.264057 0.23296 0.239188 0.246376 0.204209 0.209977 0.216828 0.169548 0.174327 0.180191 0.246376 0.254676 0.264057 0.216828 0.224933 0.23435 0.180191 0.18731 0.195823 0.290479 0.297293 0.304177 0.283135 0.292249 0.301881 0.264057 0.274551 0.285998 0.304177 0.311479 0.318847 0.301881 0.312121 0.322646 0.285998 0.298253 0.311001 0.264057 0.274551 0.285998 0.23435 0.245193 0.257386 0.195823 0.20593 0.217687 0.285998 0.298253 0.311001 0.257386 0.270656 0.284765 0.217687 0.230799 0.245154 0.169548 0.174327 0.180191 0.130599 0.134071 0.138503 0.088744 0.0908318 0.0936426 0.180191 0.18731 0.195823 0.138503 0.144038 0.15086 0.0936426 0.0972681 0.101884 0.088744 0.0908318 0.0936426 0.0450271 0.0458889 0.0471586 0 0 0 0.0936426 0.0972681 0.101884 0.0471586 0.0488541 0.0511026 0 0 0 0.195823 0.20593 0.217687 0.15086 0.159221 0.169309 0.101884 0.107724 0.115075 0.217687 0.230799 0.245154 0.169309 0.180864 0.193989 0.115075 0.123702 0.133873 0.101884 0.107724 0.115075 0.0511026 0.0540136 0.057905 0 0 0 0.115075 0.123702 0.133873 0.057905 0.0625245 0.0681915 0 0 0 0.234482 0.236586 0.239013 0.218773 0.221052 0.223649 0.198705 0.200902 0.203366 0.239013 0.241976 0.245456 0.223649 0.226787 0.230456 0.203366 0.20632 0.209751 0.198705 0.200902 0.203366 0.174471 0.1764 0.17852 0.146351 0.147903 0.149561 0.203366 0.20632 0.209751 0.17852 0.181034 0.183924 0.149561 0.1515 0.153685 0.245456 0.249596 0.254431 0.230456 0.234863 0.240064 0.209751 0.213904 0.218847 0.254431 0.260327 0.26716 0.240064 0.246566 0.25432 0.218847 0.225191 0.23296 0.209751 0.213904 0.218847 0.183924 0.18744 0.191646 0.153685 0.156349 0.159528 0.218847 0.225191 0.23296 0.191646 0.19721 0.204209 0.159528 0.163894 0.169548 0.146351 0.147903 0.149561 0.114634 0.115771 0.116935 0.0795635 0.080293 0.080992 0.149561 0.1515 0.153685 0.116935 0.118273 0.119728 0.080992 0.0817825 0.0825876 0.0795635 0.080293 0.080992 0.0413177 0.0416706 0.0419715 0 0 0 0.080992 0.0817825 0.0825876 0.0419715 0.0423165 0.0426181 0 0 0 0.153685 0.156349 0.159528 0.119728 0.121501 0.123574 0.0825876 0.08357 0.0846494 0.159528 0.163894 0.169548 0.123574 0.126574 0.130599 0.0846494 0.0863496 0.088744 0.0825876 0.08357 0.0846494 0.0426181 0.0430068 0.0433566 0 0 0 0.0846494 0.0863496 0.088744 0.0433566 0.0440164 0.0450271 0 0 0 0.253825 0.248871 0.243263 0.253724 0.24913 0.24394 0.254828 0.251025 0.246748 0.243263 0.236803 0.229397 0.24394 0.237978 0.23115 0.246748 0.241862 0.236282 0.254828 0.251025 0.246748 0.256377 0.253674 0.250659 0.25733 0.255875 0.254289 0.246748 0.241862 0.236282 0.250659 0.24726 0.243398 0.254289 0.252568 0.250648 0.229397 0.220603 0.210299 0.23115 0.223034 0.213513 0.236282 0.229631 0.221803 0.210299 0.198022 0.18337 0.213513 0.202136 0.188501 0.221803 0.212392 0.201006 0.236282 0.229631 0.221803 0.243398 0.238768 0.233277 0.250648 0.248304 0.245467 0.221803 0.212392 0.201006 0.233277 0.226596 0.218352 0.245467 0.241909 0.237287 0.25733 0.255875 0.254289 0.256546 0.256316 0.256126 0.252986 0.253815 0.254828 0.254289 0.252568 0.250648 0.256126 0.256043 0.256014 0.254828 0.256153 0.257749 0.252986 0.253815 0.254828 0.245805 0.247428 0.24933 0.234482 0.236586 0.239013 0.254828 0.256153 0.257749 0.24933 0.25169 0.25448 0.239013 0.241976 0.245456 0.250648 0.248304 0.245467 0.256014 0.255908 0.255679 0.257749 0.259583 0.261635 0.245467 0.241909 0.237287 0.255679 0.255226 0.254244 0.261635 0.263952 0.26628 0.257749 0.259583 0.261635 0.25448 0.257759 0.261536 0.245456 0.249596 0.254431 0.261635 0.263952 0.26628 0.261536 0.266016 0.271006 0.254431 0.260327 0.26716 0.18337 0.171992 0.15911 0.188501 0.177855 0.165745 0.201006 0.192005 0.181666 0.15911 0.144899 0.128921 0.165745 0.15233 0.137163 0.181666 0.170117 0.156908 0.201006 0.192005 0.181666 0.218352 0.211674 0.203857 0.237287 0.233323 0.228481 0.181666 0.170117 0.156908 0.203857 0.194999 0.18466 0.228481 0.222842 0.215987 0.128921 0.111498 0.0920953 0.137163 0.120525 0.10186 0.156908 0.142234 0.125523 0.0920953 0.0721612 0.0516332 0.10186 0.0825715 0.0625164 0.125523 0.108063 0.0895392 0.156908 0.142234 0.125523 0.18466 0.172935 0.159254 0.215987 0.207933 0.198142 0.125523 0.108063 0.0895392 0.159254 0.144758 0.128939 0.198142 0.187598 0.175694 0.237287 0.233323 0.228481 0.254244 0.253051 0.251291 0.26628 0.267672 0.268834 0.228481 0.222842 0.215987 0.251291 0.249034 0.245904 0.268834 0.269844 0.27038 0.26628 0.267672 0.268834 0.271006 0.274552 0.278214 0.26716 0.272289 0.277864 0.268834 0.269844 0.27038 0.278214 0.28208 0.28589 0.277864 0.283992 0.290479 0.215987 0.207933 0.198142 0.245904 0.241871 0.236469 0.27038 0.2704 0.269518 0.198142 0.187598 0.175694 0.236469 0.230553 0.223472 0.269518 0.268462 0.266707 0.27038 0.2704 0.269518 0.28589 0.289603 0.292912 0.290479 0.297293 0.304177 0.269518 0.268462 0.266707 0.292912 0.296384 0.299556 0.304177 0.311