# vtk DataFile Version 3.0
#This file was generated by the deal.II library on 2024/9/17 at 11:44:58
ASCII
DATASET UNSTRUCTURED_GRID

POINTS 5760 double
0.11 0.11 0
0.09625 0.10875 0
0.0825 0.1075 0
0.10875 0.09625 0
0.0951562 0.0951563 0
0.0815625 0.0940625 0
0.1075 0.0825 0
0.0940625 0.0815625 0
0.080625 0.080625 0
0.0825 0.1075 0
0.06875 0.10625 0
0.055 0.105 0
0.0815625 0.0940625 0
0.0679688 0.0929688 0
0.054375 0.091875 0
0.080625 0.080625 0
0.0671875 0.0796875 0
0.05375 0.07875 0
0.1075 0.0825 0
0.0940625 0.0815625 0
0.080625 0.080625 0
0.10625 0.06875 0
0.0929688 0.0679688 0
0.0796875 0.0671875 0
0.105 0.055 0
0.091875 0.054375 0
0.07875 0.05375 0
0.080625 0.080625 0
0.0671875 0.0796875 0
0.05375 0.07875 0
0.0796875 0.0671875 0
0.0664063 0.0664062 0
0.053125 0.065625 0
0.07875 0.05375 0
0.065625 0.053125 0
0.0525 0.0525 0
0.055 0.105 0
0.04125 0.10375 0
0.0275 0.1025 0
0.054375 0.091875 0
0.0407813 0.0907813 0
0.0271875 0.0896875 0
0.05375 0.07875 0
0.0403125 0.0778125 0
0.026875 0.076875 0
0.0275 0.1025 0
0.01375 0.10125 0
0 0.1 0
0.0271875 0.0896875 0
0.0135938 0.0885938 0
0 0.0875 0
0.026875 0.076875 0
0.0134375 0.0759375 0
0 0.075 0
0.05375 0.07875 0
0.0403125 0.0778125 0
0.026875 0.076875 0
0.053125 0.065625 0
0.0398438 0.0648438 0
0.0265625 0.0640625 0
0.0525 0.0525 0
0.039375 0.051875 0
0.02625 0.05125 0
0.026875 0.076875 0
0.0134375 0.0759375 0
0 0.075 0
0.0265625 0.0640625 0
0.0132813 0.0632813 0
0 0.0625 0
0.02625 0.05125 0
0.013125 0.050625 0
0 0.05 0
0.105 0.055 0
0.091875 0.054375 0
0.07875 0.05375 0
0.10375 0.04125 0
0.0907813 0.0407813 0
0.0778125 0.0403125 0
0.1025 0.0275 0
0.0896875 0.0271875 0
0.076875 0.026875 0
0.07875 0.05375 0
0.065625 0.053125 0
0.0525 0.0525 0
0.0778125 0.0403125 0
0.0648438 0.0398438 0
0.051875 0.039375 0
0.076875 0.026875 0
0.0640625 0.0265625 0
0.05125 0.02625 0
0.1025 0.0275 0
0.0896875 0.0271875 0
0.076875 0.026875 0
0.10125 0.01375 0
0.0885937 0.0135938 0
0.0759375 0.0134375 0
0.1 0 0
0.0875 0 0
0.075 0 0
0.076875 0.026875 0
0.0640625 0.0265625 0
0.05125 0.02625 0
0.0759375 0.0134375 0
0.0632812 0.0132813 0
0.050625 0.013125 0
0.075 0 0
0.0625 0 0
0.05 0 0
0.0525 0.0525 0
0.039375 0.051875 0
0.02625 0.05125 0
0.051875 0.039375 0
0.0389063 0.0389063 0
0.0259375 0.0384375 0
0.05125 0.02625 0
0.0384375 0.0259375 0
0.025625 0.025625 0
0.02625 0.05125 0
0.013125 0.050625 0
0 0.05 0
0.0259375 0.0384375 0
0.0129688 0.0379688 0
0 0.0375 0
0.025625 0.025625 0
0.0128125 0.0253125 0
0 0.025 0
0.05125 0.02625 0
0.0384375 0.0259375 0
0.025625 0.025625 0
0.050625 0.013125 0
0.0379688 0.0129688 0
0.0253125 0.0128125 0
0.05 0 0
0.0375 0 0
0.025 0 0
0.025625 0.025625 0
0.0128125 0.0253125 0
0 0.025 0
0.0253125 0.0128125 0
0.0126563 0.0126563 0
0 0.0125 0
0.025 0 0
0.0125 0 0
0 0 0
0.2 0.1 0
0.18875 0.10125 0
0.1775 0.1025 0
0.2 0.0875 0
0.188594 0.0885938 0
0.177187 0.0896875 0
0.2 0.075 0
0.188438 0.0759375 0
0.176875 0.076875 0
0.1775 0.1025 0
0.16625 0.10375 0
0.155 0.105 0
0.177187 0.0896875 0
0.165781 0.0907813 0
0.154375 0.091875 0
0.176875 0.076875 0
0.165313 0.0778125 0
0.15375 0.07875 0
0.2 0.075 0
0.188438 0.0759375 0
0.176875 0.076875 0
0.2 0.0625 0
0.188281 0.0632813 0
0.176563 0.0640625 0
0.2 0.05 0
0.188125 0.050625 0
0.17625 0.05125 0
0.176875 0.076875 0
0.165313 0.0778125 0
0.15375 0.07875 0
0.176563 0.0640625 0
0.164844 0.0648438 0
0.153125 0.065625 0
0.17625 0.05125 0
0.164375 0.051875 0
0.1525 0.0525 0
0.155 0.105 0
0.14375 0.10625 0
0.1325 0.1075 0
0.154375 0.091875 0
0.142969 0.0929688 0
0.131562 0.0940625 0
0.15375 0.07875 0
0.142187 0.0796875 0
0.130625 0.080625 0
0.1325 0.1075 0
0.12125 0.10875 0
0.11 0.11 0
0.131562 0.0940625 0
0.120156 0.0951563 0
0.10875 0.09625 0
0.130625 0.080625 0
0.119063 0.0815625 0
0.1075 0.0825 0
0.15375 0.07875 0
0.142187 0.0796875 0
0.130625 0.080625 0
0.153125 0.065625 0
0.141406 0.0664062 0
0.129688 0.0671875 0
0.1525 0.0525 0
0.140625 0.053125 0
0.12875 0.05375 0
0.130625 0.080625 0
0.119063 0.0815625 0
0.1075 0.0825 0
0.129688 0.0671875 0
0.117969 0.0679688 0
0.10625 0.06875 0
0.12875 0.05375 0
0.116875 0.054375 0
0.105 0.055 0
0.2 0.05 0
0.188125 0.050625 0
0.17625 0.05125 0
0.2 0.0375 0
0.187969 0.0379688 0
0.175938 0.0384375 0
0.2 0.025 0
0.187813 0.0253125 0
0.175625 0.025625 0
0.17625 0.05125 0
0.164375 0.051875 0
0.1525 0.0525 0
0.175938 0.0384375 0
0.163906 0.0389063 0
0.151875 0.039375 0
0.175625 0.025625 0
0.163438 0.0259375 0
0.15125 0.02625 0
0.2 0.025 0
0.187813 0.0253125 0
0.175625 0.025625 0
0.2 0.0125 0
0.187656 0.0126563 0
0.175313 0.0128125 0
0.2 0 0
0.1875 0 0
0.175 0 0
0.175625 0.025625 0
0.163438 0.0259375 0
0.15125 0.02625 0
0.175313 0.0128125 0
0.162969 0.0129688 0
0.150625 0.013125 0
0.175 0 0
0.1625 0 0
0.15 0 0
0.1525 0.0525 0
0.140625 0.053125 0
0.12875 0.05375 0
0.151875 0.039375 0
0.139844 0.0398438 0
0.127813 0.0403125 0
0.15125 0.02625 0
0.139063 0.0265625 0
0.126875 0.026875 0
0.12875 0.05375 0
0.116875 0.054375 0
0.105 0.055 0
0.127813 0.0403125 0
0.115781 0.0407813 0
0.10375 0.04125 0
0.126875 0.026875 0
0.114688 0.0271875 0
0.1025 0.0275 0
0.15125 0.02625 0
0.139063 0.0265625 0
0.126875 0.026875 0
0.150625 0.013125 0
0.138281 0.0132813 0
0.125938 0.0134375 0
0.15 0 0
0.1375 0 0
0.125 0 0
0.126875 0.026875 0
0.114688 0.0271875 0
0.1025 0.0275 0
0.125938 0.0134375 0
0.113594 0.0135938 0
0.10125 0.01375 0
0.125 0 0
0.1125 0 0
0.1 0 0
0.1 0.2 0
0.0875 0.2 0
0.075 0.2 0
0.10125 0.18875 0
0.0885937 0.188594 0
0.0759375 0.188438 0
0.1025 0.1775 0
0.0896875 0.177187 0
0.076875 0.176875 0
0.075 0.2 0
0.0625 0.2 0
0.05 0.2 0
0.0759375 0.188438 0
0.0632813 0.188281 0
0.050625 0.188125 0
0.076875 0.176875 0
0.0640625 0.176563 0
0.05125 0.17625 0
0.1025 0.1775 0
0.0896875 0.177187 0
0.076875 0.176875 0
0.10375 0.16625 0
0.0907813 0.165781 0
0.0778125 0.165313 0
0.105 0.155 0
0.091875 0.154375 0
0.07875 0.15375 0
0.076875 0.176875 0
0.0640625 0.176563 0
0.05125 0.17625 0
0.0778125 0.165313 0
0.0648438 0.164844 0
0.051875 0.164375 0
0.07875 0.15375 0
0.065625 0.153125 0
0.0525 0.1525 0
0.05 0.2 0
0.0375 0.2 0
0.025 0.2 0
0.050625 0.188125 0
0.0379688 0.187969 0
0.0253125 0.187813 0
0.05125 0.17625 0
0.0384375 0.175938 0
0.025625 0.175625 0
0.025 0.2 0
0.0125 0.2 0
0 0.2 0
0.0253125 0.187813 0
0.0126563 0.187656 0
0 0.1875 0
0.025625 0.175625 0
0.0128125 0.175313 0
0 0.175 0
0.05125 0.17625 0
0.0384375 0.175938 0
0.025625 0.175625 0
0.051875 0.164375 0
0.0389063 0.163906 0
0.0259375 0.163438 0
0.0525 0.1525 0
0.039375 0.151875 0
0.02625 0.15125 0
0.025625 0.175625 0
0.0128125 0.175313 0
0 0.175 0
0.0259375 0.163438 0
0.0129688 0.162969 0
0 0.1625 0
0.02625 0.15125 0
0.013125 0.150625 0
0 0.15 0
0.105 0.155 0
0.091875 0.154375 0
0.07875 0.15375 0
0.10625 0.14375 0
0.0929688 0.142969 0
0.0796875 0.142187 0
0.1075 0.1325 0
0.0940625 0.131562 0
0.080625 0.130625 0
0.07875 0.15375 0
0.065625 0.153125 0
0.0525 0.1525 0
0.0796875 0.142187 0
0.0664063 0.141406 0
0.053125 0.140625 0
0.080625 0.130625 0
0.0671875 0.129688 0
0.05375 0.12875 0
0.1075 0.1325 0
0.0940625 0.131562 0
0.080625 0.130625 0
0.10875 0.12125 0
0.0951563 0.120156 0
0.0815625 0.119063 0
0.11 0.11 0
0.09625 0.10875 0
0.0825 0.1075 0
0.080625 0.130625 0
0.0671875 0.129688 0
0.05375 0.12875 0
0.0815625 0.119063 0
0.0679688 0.117969 0
0.054375 0.116875 0
0.0825 0.1075 0
0.06875 0.10625 0
0.055 0.105 0
0.0525 0.1525 0
0.039375 0.151875 0
0.02625 0.15125 0
0.053125 0.140625 0
0.0398438 0.139844 0
0.0265625 0.139063 0
0.05375 0.12875 0
0.0403125 0.127813 0
0.026875 0.126875 0
0.02625 0.15125 0
0.013125 0.150625 0
0 0.15 0
0.0265625 0.139063 0
0.0132813 0.138281 0
0 0.1375 0
0.026875 0.126875 0
0.0134375 0.125938 0
0 0.125 0
0.05375 0.12875 0
0.0403125 0.127813 0
0.026875 0.126875 0
0.054375 0.116875 0
0.0407813 0.115781 0
0.0271875 0.114688 0
0.055 0.105 0
0.04125 0.10375 0
0.0275 0.1025 0
0.026875 0.126875 0
0.0134375 0.125938 0
0 0.125 0
0.0271875 0.114688 0
0.0135938 0.113594 0
0 0.1125 0
0.0275 0.1025 0
0.01375 0.10125 0
0 0.1 0
0.29 0.11 0
0.27875 0.10875 0
0.2675 0.1075 0
0.29125 0.09625 0
0.279844 0.0951563 0
0.268437 0.0940625 0
0.2925 0.0825 0
0.280938 0.0815625 0
0.269375 0.080625 0
0.2675 0.1075 0
0.25625 0.10625 0
0.245 0.105 0
0.268437 0.0940625 0
0.257031 0.0929688 0
0.245625 0.091875 0
0.269375 0.080625 0
0.257812 0.0796875 0
0.24625 0.07875 0
0.2925 0.0825 0
0.280938 0.0815625 0
0.269375 0.080625 0
0.29375 0.06875 0
0.282031 0.0679688 0
0.270313 0.0671875 0
0.295 0.055 0
0.283125 0.054375 0
0.27125 0.05375 0
0.269375 0.080625 0
0.257812 0.0796875 0
0.24625 0.07875 0
0.270313 0.0671875 0
0.258594 0.0664062 0
0.246875 0.065625 0
0.27125 0.05375 0
0.259375 0.053125 0
0.2475 0.0525 0
0.245 0.105 0
0.23375 0.10375 0
0.2225 0.1025 0
0.245625 0.091875 0
0.234219 0.0907813 0
0.222813 0.0896875 0
0.24625 0.07875 0
0.234687 0.0778125 0
0.223125 0.076875 0
0.2225 0.1025 0
0.21125 0.10125 0
0.2 0.1 0
0.222813 0.0896875 0
0.211406 0.0885937 0
0.2 0.0875 0
0.223125 0.076875 0
0.211563 0.0759375 0
0.2 0.075 0
0.24625 0.07875 0
0.234687 0.0778125 0
0.223125 0.076875 0
0.246875 0.065625 0
0.235156 0.0648438 0
0.223438 0.0640625 0
0.2475 0.0525 0
0.235625 0.051875 0
0.22375 0.05125 0
0.223125 0.076875 0
0.211563 0.0759375 0
0.2 0.075 0
0.223438 0.0640625 0
0.211719 0.0632813 0
0.2 0.0625 0
0.22375 0.05125 0
0.211875 0.050625 0
0.2 0.05 0
0.295 0.055 0
0.283125 0.054375 0
0.27125 0.05375 0
0.29625 0.04125 0
0.284219 0.0407813 0
0.272188 0.0403125 0
0.2975 0.0275 0
0.285312 0.0271875 0
0.273125 0.026875 0
0.27125 0.05375 0
0.259375 0.053125 0
0.2475 0.0525 0
0.272188 0.0403125 0
0.260156 0.0398438 0
0.248125 0.039375 0
0.273125 0.026875 0
0.260937 0.0265625 0
0.24875 0.02625 0
0.2975 0.0275 0
0.285312 0.0271875 0
0.273125 0.026875 0
0.29875 0.01375 0
0.286406 0.0135938 0
0.274062 0.0134375 0
0.3 0 0
0.2875 0 0
0.275 0 0
0.273125 0.026875 0
0.260937 0.0265625 0
0.24875 0.02625 0
0.274062 0.0134375 0
0.261719 0.0132813 0
0.249375 0.013125 0
0.275 0 0
0.2625 0 0
0.25 0 0
0.2475 0.0525 0
0.235625 0.051875 0
0.22375 0.05125 0
0.248125 0.039375 0
[...]
POINT_DATA 5760
SCALARS x_velo double 1
LOOKUP_TABLE default
0.258938 0.249258 0.242596 0.247759 0.236577 0.227973 0.230703 0.218871 0.209186 0.242596 0.236844 0.232745 0.227973 0.22068 0.215152 0.209186 0.200978 0.194494 0.230703 0.218871 0.209186 0.208589 0.196561 0.186416 0.18183 0.170085 0.159932 0.209186 0.200978 0.194494 0.186416 0.177748 0.170752 0.159932 0.15121 0.144067 0.232745 0.229053 0.226053 0.215152 0.210419 0.206695 0.194494 0.189079 0.18487 0.226053 0.22342 0.221297 0.206695 0.203671 0.201443 0.18487 0.181603 0.179358 0.194494 0.189079 0.18487 0.170752 0.164982 0.160532 0.144067 0.138227 0.133756 0.18487 0.181603 0.179358 0.160532 0.157202 0.155042 0.133756 0.130497 0.128495 0.18183 0.170085 0.159932 0.150226 0.139118 0.129438 0.111472 0.101998 0.0937126 0.159932 0.15121 0.144067 0.129438 0.121094 0.114234 0.0937126 0.0865787 0.0807129 0.111472 0.101998 0.0937126 0.0623342 0.0562197 0.0509339 0 0 0 0.0937126 0.0865787 0.0807129 0.0509339 0.046381 0.0426813 0 0 0 0.144067 0.138227 0.133756 0.114234 0.108666 0.104458 0.0807129 0.0759953 0.0724875 0.133756 0.130497 0.128495 0.104458 0.101469 0.0997174 0.0724875 0.0700625 0.0687091 0.0807129 0.0759953 0.0724875 0.0426813 0.0397113 0.037588 0 0 0 0.0724875 0.0700625 0.0687091 0.037588 0.0361582 0.03547 0 0 0 0.383889 0.373829 0.358109 0.362131 0.35092 0.336171 0.334336 0.323367 0.309962 0.358109 0.339264 0.318004 0.336171 0.319726 0.301859 0.309962 0.295496 0.280179 0.334336 0.323367 0.309962 0.304334 0.293957 0.281776 0.270854 0.261358 0.250281 0.309962 0.295496 0.280179 0.281776 0.268785 0.255133 0.250281 0.23846 0.226034 0.318004 0.298934 0.281868 0.301859 0.285443 0.270321 0.280179 0.265759 0.25231 0.281868 0.268829 0.258938 0.270321 0.257814 0.247759 0.25231 0.240638 0.230703 0.280179 0.265759 0.25231 0.255133 0.242037 0.229613 0.226034 0.213901 0.202217 0.25231 0.240638 0.230703 0.229613 0.218439 0.208589 0.202217 0.191468 0.18183 0.270854 0.261358 0.250281 0.230719 0.222642 0.21302 0.177363 0.17141 0.163977 0.250281 0.23846 0.226034 0.21302 0.202584 0.191473 0.163977 0.15565 0.146597 0.177363 0.17141 0.163977 0.102831 0.0997823 0.0955514 0 0 0 0.163977 0.15565 0.146597 0.0955514 0.090621 0.0850252 0 0 0 0.226034 0.213901 0.202217 0.191473 0.180417 0.169608 0.146597 0.13739 0.128252 0.202217 0.191468 0.18183 0.169608 0.159478 0.150226 0.128252 0.119544 0.111472 0.146597 0.13739 0.128252 0.0850252 0.0792108 0.0733301 0 0 0 0.128252 0.119544 0.111472 0.0733301 0.067641 0.0623342 0 0 0 0.217367 0.241909 0.260109 0.216785 0.241096 0.258944 0.22161 0.24277 0.258742 0.260109 0.273981 0.283835 0.258944 0.272528 0.282238 0.258742 0.270848 0.279675 0.22161 0.24277 0.258742 0.230794 0.246784 0.259395 0.241391 0.251319 0.259772 0.258742 0.270848 0.279675 0.259395 0.268925 0.276168 0.259772 0.266114 0.271303 0.283835 0.291198 0.296016 0.282238 0.289437 0.294147 0.279675 0.286169 0.290406 0.296016 0.298918 0.299822 0.294147 0.296946 0.297814 0.290406 0.292885 0.293575 0.279675 0.286169 0.290406 0.276168 0.281398 0.284803 0.271303 0.274914 0.277233 0.290406 0.292885 0.293575 0.284803 0.286696 0.287106 0.277233 0.278375 0.278406 0.241391 0.251319 0.259772 0.251229 0.254945 0.259028 0.257881 0.256415 0.25629 0.259772 0.266114 0.271303 0.259028 0.261985 0.264822 0.25629 0.255984 0.256393 0.257881 0.256415 0.25629 0.260452 0.254579 0.250877 0.258938 0.249258 0.242596 0.25629 0.255984 0.256393 0.250877 0.247677 0.245743 0.242596 0.236844 0.232745 0.271303 0.274914 0.277233 0.264822 0.266599 0.267648 0.256393 0.256261 0.255955 0.277233 0.278375 0.278406 0.267648 0.26791 0.267475 0.255955 0.255259 0.254313 0.256393 0.256261 0.255955 0.245743 0.243779 0.242108 0.232745 0.229053 0.226053 0.255955 0.255259 0.254313 0.242108 0.240449 0.23892 0.226053 0.22342 0.221297 0.325997 0.335616 0.346864 0.355364 0.362532 0.369606 0.357884 0.361953 0.365161 0.346864 0.358766 0.37122 0.369606 0.375666 0.380433 0.365161 0.366635 0.366209 0.357884 0.361953 0.365161 0.340357 0.342444 0.34332 0.308103 0.309586 0.309749 0.365161 0.366635 0.366209 0.34332 0.342403 0.339621 0.309749 0.308175 0.304798 0.37122 0.381767 0.389282 0.380433 0.382078 0.380278 0.366209 0.362886 0.356549 0.389282 0.390217 0.383889 0.380278 0.373573 0.362131 0.356549 0.347005 0.334336 0.366209 0.362886 0.356549 0.339621 0.334428 0.326792 0.304798 0.299352 0.291803 0.356549 0.347005 0.334336 0.326792 0.316762 0.304334 0.291803 0.282292 0.270854 0.308103 0.309586 0.309749 0.260241 0.262351 0.26316 0.193599 0.196537 0.198429 0.309749 0.308175 0.304798 0.26316 0.26234 0.2598 0.198429 0.198961 0.197999 0.193599 0.196537 0.198429 0.106084 0.108773 0.110903 0 0 0 0.198429 0.198961 0.197999 0.110903 0.112242 0.112639 0 0 0 0.304798 0.299352 0.291803 0.2598 0.255363 0.248965 0.197999 0.195381 0.191006 0.291803 0.282292 0.270854 0.248965 0.240767 0.230719 0.191006 0.185004 0.177363 0.197999 0.195381 0.191006 0.112639 0.111986 0.110094 0 0 0 0.191006 0.185004 0.177363 0.110094 0.107102 0.102831 0 0 0 0.303797 0.3076 0.311172 0.305468 0.312199 0.318862 0.294024 0.302694 0.311363 0.311172 0.314344 0.31711 0.318862 0.325324 0.331582 0.311363 0.319849 0.328113 0.294024 0.302694 0.311363 0.269831 0.279608 0.289485 0.233545 0.243554 0.253836 0.311363 0.319849 0.328113 0.289485 0.299224 0.308714 0.253836 0.264147 0.274335 0.31711 0.319502 0.321607 0.331582 0.337631 0.343543 0.328113 0.336011 0.343576 0.321607 0.323609 0.325997 0.343543 0.349424 0.355364 0.343576 0.350815 0.357884 0.328113 0.336011 0.343576 0.308714 0.317679 0.326058 0.274335 0.284048 0.293144 0.343576 0.350815 0.357884 0.326058 0.333625 0.340357 0.293144 0.301202 0.308103 0.233545 0.243554 0.253836 0.186242 0.195364 0.204933 0.129748 0.136807 0.144376 0.253836 0.264147 0.274335 0.204933 0.214767 0.224747 0.144376 0.15237 0.160745 0.129748 0.136807 0.144376 0.0666677 0.0705938 0.07489 0 0 0 0.144376 0.15237 0.160745 0.07489 0.0795184 0.0845316 0 0 0 0.274335 0.284048 0.293144 0.224747 0.234531 0.243961 0.160745 0.16926 0.177792 0.293144 0.301202 0.308103 0.243961 0.252585 0.260241 0.177792 0.185972 0.193599 0.160745 0.16926 0.177792 0.0845316 0.0897732 0.0952408 0 0 0 0.177792 0.185972 0.193599 0.0952408 0.100698 0.106084 0 0 0 0.0814005 0.0683784 0.0556397 0.0905015 0.0775271 0.0647549 0.113622 0.101146 0.0887106 0.0556397 0.0430278 0.030637 0.0647549 0.05201 0.0393847 0.0887106 0.076068 0.0632876 0.113622 0.101146 0.0887106 0.147337 0.136035 0.124548 0.187087 0.177736 0.168033 0.0887106 0.076068 0.0632876 0.124548 0.112562 0.100104 0.168033 0.157581 0.146368 0.030637 0.0187816 0.00812602 0.0393847 0.0271904 0.0160477 0.0632876 0.0506114 0.0385435 0.00812602 -0.00114202 -0.00804516 0.0160477 0.00613241 -0.00164663 0.0385435 0.0271359 0.0170555 0.0632876 0.0506114 0.0385435 0.100104 0.0873017 0.0744729 0.146368 0.134395 0.121809 0.0385435 0.0271359 0.0170555 0.0744729 0.0615092 0.0487359 0.121809 0.108346 0.0941058 0.187087 0.177736 0.168033 0.227133 0.220574 0.21357 0.26272 0.259531 0.255935 0.168033 0.157581 0.146368 0.21357 0.205725 0.197005 0.255935 0.251581 0.24644 0.26272 0.259531 0.255935 0.28907 0.289445 0.289506 0.303797 0.3076 0.311172 0.255935 0.251581 0.24644 0.289506 0.288995 0.2879 0.311172 0.314344 0.31711 0.146368 0.134395 0.121809 0.197005 0.187322 0.176702 0.24644 0.240416 0.233516 0.121809 0.108346 0.0941058 0.176702 0.164895 0.151848 0.233516 0.225582 0.216912 0.24644 0.240416 0.233516 0.2879 0.286188 0.283905 0.31711 0.319502 0.321607 0.233516 0.225582 0.216912 0.283905 0.281072 0.277739 0.321607 0.323609 0.325997 0.309663 0.312127 0.314485 0.29057 0.289874 0.288979 0.260693 0.256654 0.252319 0.314485 0.316586 0.318443 0.288979 0.287634 0.285847 0.252319 0.247345 0.241719 0.260693 0.256654 0.252319 0.222571 0.215377 0.20785 0.181163 0.171386 0.161369 0.252319 0.247345 0.241719 0.20785 0.199611 0.190635 0.161369 0.150734 0.139479 0.318443 0.320093 0.321636 0.285847 0.28359 0.280926 0.241719 0.235356 0.228275 0.321636 0.32327 0.325524 0.280926 0.277881 0.274501 0.228275 0.220314 0.211772 0.241719 0.235356 0.228275 0.190635 0.18085 0.170292 0.139479 0.127618 0.11531 0.228275 0.220314 0.211772 0.170292 0.158714 0.146058 0.11531 0.102294 0.0886645 0.181163 0.171386 0.161369 0.141351 0.129803 0.118172 0.108778 0.0961885 0.0837152 0.161369 0.150734 0.139479 0.118172 0.106165 0.0938087 0.0837152 0.0711277 0.0584969 0.108778 0.0961885 0.0837152 0.0878079 0.0747931 0.0620216 0.0814005 0.0683784 0.0556397 0.0837152 0.0711277 0.0584969 0.0620216 0.0493267 0.0368013 0.0556397 0.0430278 0.030637 0.139479 0.127618 0.11531 0.0938087 0.0812462 0.0688018 0.0584969 0.0460704 0.0343578 0.11531 0.102294 0.0886645 0.0688018 0.0563724 0.0442824 0.0343578 0.023415 0.0139086 0.0584969 0.0460704 0.0343578 0.0368013 0.024759 0.0138228 0.030637 0.0187816 0.00812602 0.0343578 0.023415 0.0139086 0.0138228 0.00417043 -0.00328716 0.00812602 -0.00114202 -0.00804516 0 0 0 0.0748911 0.0788324 0.083051 0.143979 0.150788 0.157932 0 0 0 0.083051 0.0875153 0.0922596 0.157932 0.165325 0.172903 0.143979 0.150788 0.157932 0.203831 0.212242 0.220865 0.251993 0.260839 0.269737 0.157932 0.165325 0.172903 0.220865 0.229524 0.238105 0.269737 0.278467 0.286909 0 0 0 0.0922596 0.0971258 0.102088 0.172903 0.180429 0.187779 0 0 0 0.102088 0.106932 0.111587 0.187779 0.194618 0.200766 0.172903 0.180429 0.187779 0.238105 0.246299 0.253976 0.286909 0.294769 0.301952 0.187779 0.194618 0.200766 0.253976 0.26076 0.266535 0.301952 0.308111 0.313168 0.251993 0.260839 0.269737 0.287118 0.295466 0.30379 0.308805 0.316037 0.323268 0.269737 0.278467 0.286909 0.30379 0.311896 0.319721 0.323268 0.330374 0.337361 0.308805 0.316037 0.323268 0.31656 0.321974 0.327417 0.309663 0.312127 0.314485 0.323268 0.330374 0.337361 0.327417 0.3328 0.33815 0.314485 0.316586 0.318443 0.286909 0.294769 0.301952 0.319721 0.32705 0.333856 0.337361 0.344125 0.350719 0.301952 0.308111 0.313168 0.333856 0.339952 0.345321 0.350719 0.357148 0.36355 0.337361 0.344125 0.350719 0.33815 0.343477 0.348855 0.318443 0.320093 0.321636 0.350719 0.357148 0.36355 0.348855 0.354364 0.36007 0.321636 0.32327 0.325524 0 0 0 0.111587 0.113618 0.115058 0.200766 0.20255 0.203309 0 0 0 0.115058 0.115736 0.115521 0.203309 0.202812 0.200956 0.200766 0.20255 0.203309 0.266535 0.267333 0.266912 0.313168 0.313444 0.312501 0.203309 0.202812 0.200956 0.266912 0.265037 0.261637 0.312501 0.310009 0.30592 0 0 0 0.115521 0.114353 0.11208 0.200956 0.197651 0.192824 0 0 0 0.11208 0.108843 0.104507 0.192824 0.186622 0.179055 0.200956 0.197651 0.192824 0.261637 0.256614 0.249919 0.30592 0.30005 0.292376 0.192824 0.186622 0.179055 0.249919 0.241718 0.231975 0.292376 0.283051 0.272114 0.313168 0.313444 0.312501 0.345321 0.346465 0.346441 0.36355 0.367056 0.369655 0.312501 0.310009 0.30592 0.346441 0.344751 0.341341 0.369655 0.370516 0.369499 0.36355 0.367056 0.369655 0.36007 0.367289 0.374364 0.325524 0.335751 0.34773 0.369655 0.370516 0.369499 0.374364 0.380369 0.385006 0.34773 0.360468 0.373811 0.30592 0.30005 0.292376 0.341341 0.335776 0.32804 0.369499 0.365745 0.359186 0.292376 0.283051 0.272114 0.32804 0.318238 0.306368 0.359186 0.349773 0.337593 0.369499 0.365745 0.359186 0.385006 0.386512 0.384614 0.373811 0.385245 0.393585 0.359186 0.349773 0.337593 0.384614 0.377995 0.366908 0.393585 0.395222 0.389539 0.268805 0.26001 0.254132 0.26896 0.26392 0.260932 0.265059 0.264347 0.264864 0.254132 0.249063 0.245569 0.260932 0.25835 0.256956 0.264864 0.265106 0.265989 0.265059 0.264347 0.264864 0.257103 0.261487 0.266134 0.246005 0.256504 0.265427 0.264864 0.265106 0.265989 0.266134 0.269565 0.272806 0.265427 0.272163 0.27768 0.245569 0.24237 0.239785 0.256956 0.255429 0.254124 0.265989 0.26624 0.266252 0.239785 0.237468 0.235574 0.254124 0.252742 0.251413 0.266252 0.265798 0.265021 0.265989 0.26624 0.266252 0.272806 0.274908 0.276226 0.27768 0.281558 0.284094 0.266252 0.265798 0.265021 0.276226 0.27669 0.276398 0.284094 0.2854 0.285544 0.246005 0.256504 0.265427 0.234204 0.250648 0.263622 0.223865 0.245331 0.261553 0.265427 0.272163 0.27768 0.263622 0.273457 0.280947 0.261553 0.273866 0.282859 0.223865 0.245331 0.261553 0.217909 0.242378 0.260351 0.217367 0.241909 0.260109 0.261553 0.273866 0.282859 0.260351 0.274038 0.28383 0.260109 0.273981 0.283835 0.27768 0.281558 0.284094 0.280947 0.28638 0.289947 0.282859 0.28949 0.293836 0.284094 0.2854 0.285544 0.289947 0.291963 0.29246 0.293836 0.296398 0.297145 0.282859 0.28949 0.293836 0.28383 0.291098 0.295861 0.283835 0.291198 0.296016 0.293836 0.296398 0.297145 0.295861 0.298702 0.299598 0.296016 0.298918 0.299822 0 0 0 0.104507 0.101341 0.0971725 0.179055 0.173093 0.16591 0 0 0 0.0971725 0.0923954 0.087052 0.16591 0.157985 0.149465 0.179055 0.173093 0.16591 0.231975 0.224132 0.215031 0.272114 0.263093 0.252771 0.16591 0.157985 0.149465 0.215031 0.205267 0.194962 0.252771 0.241844 0.230427 0 0 0 0.087052 0.0815124 0.0759097 0.149465 0.140824 0.132252 0 0 0 0.0759097 0.070472 0.0653646 0.132252 0.124062 0.116432 0.149465 0.140824 0.132252 0.194962 0.184724 0.174718 0.230427 0.219287 0.208554 0.132252 0.124062 0.116432 0.174718 0.165319 0.1567 0.208554 0.198659 0.189756 0.272114 0.263093 0.252771 0.306368 0.296589 0.285295 0.337593 0.327218 0.314688 0.252771 0.241844 0.230427 0.285295 0.273315 0.260785 0.314688 0.301224 0.287018 0.337593 0.327218 0.314688 0.366908 0.356136 0.342099 0.389539 0.379832 0.364552 0.314688 0.301224 0.287018 0.342099 0.326492 0.309553 0.364552 0.346217 0.325541 0.230427 0.219287 0.208554 0.260785 0.248762 0.237339 0.287018 0.27364 0.261146 0.208554 0.198659 0.189756 0.237339 0.227037 0.217908 0.261146 0.250291 0.241014 0.287018 0.27364 0.261146 0.309553 0.294024 0.279692 0.325541 0.307119 0.290678 0.261146 0.250291 0.241014 0.279692 0.267855 0.258327 0.290678 0.278218 0.268805 0 0 0 0.0653646 0.05945 0.0542827 0.116432 0.10742 0.0994704 0 0 0 0.0542827 0.049803 0.0461266 0.0994704 0.0925849 0.0868801 0.116432 0.10742 0.0994704 0.1567 0.146251 0.137083 0.189756 0.17877 0.169221 0.0994704 0.0925849 0.0868801 0.137083 0.129147 0.122583 0.169221 0.160997 0.15423 0 0 0 0.0461266 0.0431634 0.0410289 0.0868801 0.0822725 0.0788228 0 0 0 0.0410289 0.0395903 0.0388943 0.0788228 0.076431 0.0750892 0.0868801 0.0822725 0.0788228 0.122583 0.117236 0.113176 0.15423 0.148683 0.14442 0.0788228 0.076431 0.0750892 0.113176 0.110286 0.108585 0.14442 0.141306 0.139381 0.189756 0.17877 0.169221 0.217908 0.206644 0.197108 0.241014 0.229934 0.220843 0.169221 0.160997 0.15423 0.197108 0.188951 0.182355 0.220843 0.21315 0.20708 0.241014 0.229934 0.220843 0.258327 0.247893 0.239925 0.268805 0.26001 0.254132 0.220843 0.21315 0.20708 0.239925 0.23319 0.228142 0.254132 0.249063 0.245569 0.15423 0.148683 0.14442 0.182355 0.176903 0.172693 0.20708 0.202003 0.198061 0.14442 0.141306 0.139381 0.172693 0.169534 0.167478 0.198061 0.194988 0.192876 0.20708 0.202003 0.198061 0.228142 0.223804 0.220407 0.245569 0.24237 0.239785 0.198061 0.194988 0.192876 0.220407 0.217631 0.215575 0.239785 0.237468 0.235574 0.251212 0.255352 0.260105 0.240751 0.245291 0.25066 0.223884 0.228255 0.233585 0.260105 0.265716 0.272031 0.25066 0.257138 0.264664 0.233585 0.240179 0.248076 0.223884 0.228255 0.233585 0.200729 0.204468 0.209196 0.171513 0.174321 0.178047 0.233585 0.240179 0.248076 0.209196 0.215225 0.222686 0.178047 0.182977 0.189315 0.272031 0.27903 0.286465 0.264664 0.273308 0.282902 0.248076 0.257449 0.268227 0.286465 0.294924 0.303797 0.282902 0.293794 0.305468 0.268227 0.28056 0.294024 0.248076 0.257449 0.268227 0.222686 0.231859 0.242792 0.189315 0.197423 0.207491 0.268227 0.28056 0.294024 0.242792 0.25554 0.269831 0.207491 0.219552 0.233545 0.171513 0.174321 0.178047 0.136481 0.138264 0.140804 0.0958486 0.0967147 0.098115 0.178047 0.182977 0.189315 0.140804 0.144334 0.149084 0.098115 0.100206 0.103185 0.0958486 0.0967147 0.098115 0.0499886 0.0502163 0.0507276 0 0 0 0.098115 0.100206 0.103185 0.0507276 0.0515859 0.0529173 0 0 0 0.189315 0.197423 0.207491 0.149084 0.155439 0.1637 0.103185 0.107381 0.113151 0.207491 0.219552 0.233545 0.1637 0.173905 0.186242 0.113151 0.120489 0.129748 0.103185 0.107381 0.113151 0.0529173 0.0548873 0.0578305 0 0 0 0.113151 0.120489 0.129748 0.0578305 0.0616326 0.0666677 0 0 0 0.232666 0.233333 0.234201 0.22141 0.22214 0.223064 0.206294 0.206984 0.207834 0.234201 0.235439 0.23708 0.223064 0.224351 0.226028 0.207834 0.208996 0.210484 0.206294 0.206984 0.207834 0.186624 0.18721 0.187903 0.16168 0.162132 0.162636 0.207834 0.208996 0.210484 0.187903 0.188833 0.189992 0.162636 0.163295 0.164077 0.23708 0.239299 0.242183 0.226028 0.228293 0.231233 0.210484 0.212491 0.21509 0.242183 0.246145 0.251212 0.231233 0.235365 0.240751 0.21509 0.21886 0.223884 0.210484 0.212491 0.21509 0.189992 0.191547 0.193545 0.164077 0.165114 0.166403 0.21509 0.21886 0.223884 0.193545 0.196577 0.200729 0.166403 0.168516 0.171513 0.16168 0.162132 0.162636 0.13076 0.131078 0.131402 0.0933804 0.0935798 0.0937538 0.162636 0.163295 0.164077 0.131402 0.13181 0.13225 0.0937538 0.093965 0.0941455 0.0933804 0.0935798 0.0937538 0.0494739 0.0495727 0.049636 0 0 0 0.0937538 0.093965 0.0941455 0.049636 0.0497172 0.0497436 0 0 0 0.164077 0.165114 0.166403 0.13225 0.132816 0.133447 0.0941455 0.0943688 0.0945103 0.166403 0.168516 0.171513 0.133447 0.134662 0.136481 0.0945103 0.0950116 0.0958486 0.0941455 0.0943688 0.0945103 0.0497436 0.049789 0.049696 0 0 0 0.0945103 0.0950116 0.0958486 0.049696 0.0497766 0.0499886 0 0 0 0.253352 0.25131 0.248808 0.252974 0.251018 0.248635 0.252705 0.251025 0.248996 0.248808 0.245606 0.24164 0.248635 0.245604 0.241871 0.248996 0.246444 0.24333 0.252705 0.251025 0.248996 0.252299 0.251038 0.249537 0.251384 0.250616 0.249734 0.248996 0.246444 0.24333 0.249537 0.247692 0.245476 0.249734 0.248706 0.247529 0.24164 0.236495 0.230056 0.241871 0.237049 0.231036 0.24333 0.239329 0.234363 0.230056 0.221568 0.210761 0.231036 0.223124 0.213058 0.234363 0.227831 0.219506 0.24333 0.239329 0.234363 0.245476 0.242656 0.239183 0.247529 0.246064 0.244302 0.234363 0.227831 0.219506 0.239183 0.234609 0.228746 0.244302 0.241972 0.238932 0.251384 0.250616 0.249734 0.249499 0.249225 0.248958 0.246122 0.24628 0.246543 0.249734 0.248706 0.247529 0.248958 0.248738 0.248579 0.246543 0.247015 0.247722 0.246122 0.24628 0.246543 0.240703 0.241181 0.241831 0.232666 0.233333 0.234201 0.246543 0.247015 0.247722 0.241831 0.2428 0.24412 0.234201 0.235439 0.23708 0.247529 0.246064 0.244302 0.248579 0.248443 0.248354 0.247722 0.248716 0.250052 0.244302 0.241972 0.238932 0.248354 0.24823 0.247972 0.250052 0.251833 0.254004 0.247722 0.248716 0.250052 0.24412 0.245918 0.248269 0.23708 0.239299 0.242183 0.250052 0.251833 0.254004 0.248269 0.251443 0.255429 0.242183 0.246145 0.251212 0.210761 0.201741 0.19099 0.213058 0.204637 0.194578 0.219506 0.212491 0.204047 0.19099 0.178507 0.163783 0.194578 0.182878 0.169031 0.204047 0.19419 0.182419 0.219506 0.212491 0.204047 0.228746 0.223718 0.217563 0.238932 0.236194 0.23269 0.204047 0.19419 0.182419 0.217563 0.210323 0.201523 0.23269 0.228498 0.223182 0.163783 0.146723 0.126557 0.169031 0.152912 0.133742 0.182419 0.168566 0.15186 0.126557 0.105029 0.0814005 0.133742 0.113209 0.0905015 0.15186 0.133865 0.113622 0.182419 0.168566 0.15186 0.201523 0.190949 0.177871 0.223182 0.216513 0.207832 0.15186 0.133865 0.113622 0.177871 0.163699 0.147337 0.207832 0.1984 0.187087 0.238932 0.236194 0.23269 0.247972 0.247511 0.246665 0.254004 0.25557 0.257123 0.23269 0.228498 0.223182 0.246665 0.245553 0.243791 0.257123 0.258829 0.260369 0.254004 0.25557 0.257123 0.255429 0.258562 0.262022 0.251212 0.255352 0.260105 0.257123 0.258829 0.260369 0.262022 0.266013 0.270296 0.260105 0.265716 0.272031 0.223182 0.216513 0.207832 0.243791 0.241169 0.237137 0.260369 0.261584 0.262034 0.207832 0.1984 0.187087 0.237137 0.232822 0.227133 0.262034 0.262714 0.26272 0.260369 0.261584 0.262034 0.270296 0.274775 0.279118 0.272031 0.27903 0.286465 0.262034 0.262714 0.26272 0.279118 0.28414 0.28907 0.286465 0.294924 0.303797 0.230932 0.230957 0.231014 0.2191